LAMMPS (9 Jan 2009)
include         seeds.txt
variable        seed1      equal    99462
variable        seed2      equal    56068
variable        seed3      equal    48059
variable        seed4      equal    31821
variable        seed5      equal    32556
dimension       3
boundary	p f p
units           lj

atom_style      cc/full
neighbor        1.0 bin
neigh_modify    every 1 check yes exclude type 1 4 exclude type 3 4 exclude type 4 4 exclude type 1 5 exclude type 2 5 exclude type 3 5 exclude type 4 5 exclude type 5 5

read_restart	data/restart.rheo.960000
  orthogonal box = (-5 0 -10) to (105 20 10)
  32 by 4 by 5 processor grid
  264470 atoms
  254124 bonds
  169416 angles
  254124 dihedrals
  7 = max # of 1-2 neighbors
  35 = max # of 1-3 neighbors
  210 = max # of 1-4 neighbors
  420 = max # of special neighbors

group           cells union rbc platelet bank
86072 atoms in group cells

bond_style      cell
bond_coeff      1 rbc 0.1 1.8 100.0 2.0 5.47 16.41 0.0
bond_coeff      2 plat 0.1 1.8 10000.0 2.0 0.0 0.0 0.0
bond_coeff      3 bond 2.222e4 128.0e-3 0.0 0.0 0.0 0.3 0	#dummy bonds defined here for future use
bond_coeff      4 bond 2.222e4 128.0e-3 0.0 0.0 0.0 0.3 0
bond_coeff      5 bond 2.222e4 128.0e-3 0.0 0.0 0.0 0.0 0
bond_coeff      6 bond 2.222e4 128.0e-3 0.0 0.0 0.0 0.0 0

angle_style     area/volume
angle_coeff     1 4900.0 132.6  5000.0 92.66 100.0 0.0
angle_coeff     2 5000.0 19.627 5000.0 6.002 100.0 0.0

dihedral_style  bend
dihedral_coeff  1 6.025 0.0 0.0
dihedral_coeff  2 100.0 0.0 0.0

pair_style      hybrid/overlay dpd 1.0 ${seed1} dpd/misc 1.0 ${seed2} cc 1.0 ${seed3} 0 105
pair_style      hybrid/overlay dpd 1.0 99462 dpd/misc 1.0 ${seed2} cc 1.0 ${seed3} 0 105
pair_style      hybrid/overlay dpd 1.0 99462 dpd/misc 1.0 56068 cc 1.0 ${seed3} 0 105
pair_style      hybrid/overlay dpd 1.0 99462 dpd/misc 1.0 56068 cc 1.0 48059 0 105
pair_coeff      1 1 dpd 5.0 20.0 2.0 0.2 1.58
pair_coeff      1 2 dpd 0.0 10.0 1.414 0.2 1.5
pair_coeff      1 3 dpd 0.0 45.0 3.0 0.2 1.5
pair_coeff      1 4 dpd 0.0 0.0 0.0 0.25 1.0
pair_coeff      1 5 dpd 0.0 0.0 0.0 0.25 1.0
pair_coeff      2 2 dpd 2.5 10.0 1.414 0.2 1.0
pair_coeff      2 3 dpd 2.5 10.0 1.414 0.2 1.0
pair_coeff      2 4 dpd 0.0 0.0 0.0 0.25 1.0
pair_coeff      2 5 dpd 0.0 0.0 0.0 0.25 1.0
pair_coeff      3 3 dpd 10.0 10.0 1.414 0.2 1.0
pair_coeff      3 4 dpd 0.0 0.0 0.0 0.25 1.0
pair_coeff      3 5 dpd 0.0 0.0 0.0 0.25 1.0
pair_coeff      4 4 dpd 0.0 0.0 0.0 0.25 1.0
pair_coeff      4 5 dpd 0.0 0.0 0.0 0.25 1.0
pair_coeff      5 5 dpd 0.0 0.0 0.0 0.25 1.0
pair_coeff      2 2 dpd/misc 2 5.0 2.0 1.0 1.0
pair_coeff      2 3 dpd/misc 2 5.0 2.0 1.0 1.0
pair_coeff      3 3 dpd/misc 2 5.0 2.0 0.95 1.0
#pair_coeff      1 1 dpd/misc 4 0.0 20.0 2.0 0.2 1.58 11
include         coeff.in
#             i j a     ga     si    s1    rc   rcc   Ri  Di    s2
pair_coeff    1 1 cc  0.00  0.00  0.00  0.40  1.58  1.00  0.00	1.730E-02	2.00	0.00	1.501E-02	2.00	0.00	8.867E-03	2.00	0.00	5.995E-03	2.00	0.00	8.508E-03	2.00	0.00	1.501E-02	2.00	0.00	2.125E-02	2.00	0.00	1.501E-02	2.00	0.00	1.802E-02	2.00	0.00	1.350E-02	2.00	0.00	3.662E-03	2.00	0.00	5.924E-03	2.00	0.00	1.274E-02	2.00	0.00	9.047E-03	2.00	0.00	1.479E-02	2.00	0.00	1.741E-02	2.00	0.00	1.454E-02	2.00	0.00	1.432E-02	2.00	0.00	1.569E-02	2.00	0.00	4.000E-04	2.00	0.00	8.710E-02	2.00	0.00	0.000E+00 2.00  0.00  0.000E+00 2.00
pair_coeff    1 2 cc  0.00  0.00  0.00  0.40  1.58  1.00  0.00	1.730E-02	2.00	0.00	1.501E-02	2.00	0.00	8.867E-03	2.00	0.00	5.995E-03	2.00	0.00	8.508E-03	2.00	0.00	1.501E-02	2.00	0.00	2.125E-02	2.00	0.00	1.501E-02	2.00	0.00	1.802E-02	2.00	0.00	1.350E-02	2.00	0.00	3.662E-03	2.00	0.00	5.924E-03	2.00	0.00	1.274E-02	2.00	0.00	9.047E-03	2.00	0.00	1.479E-02	2.00	0.00	1.741E-02	2.00	0.00	1.454E-02	2.00	0.00	1.432E-02	2.00	0.00	1.569E-02	2.00	0.00	4.000E-04	2.00	0.00	8.710E-02	2.00	0.00	0.000E+00 2.00  0.00  0.000E+00 2.00

#time integrater
fix		1  move nve
fix		2  chemical cc/verlet x 0.0 initial_cc.dat
#add reaction
fix		31 solvent cc/reaction 2 33 25 65 0 react_rates.dat
fix		32 platelet cc/reaction 3 33 25 65 0 react_rates.dat
#add body force to drive the flow + bounce-back + no-slip
fix     40 solvent solid/bound 0 bc_channel.dat
fix     41 rbc solid/bound 0 bc_channel_rbc.dat
fix     42 platelet solid/bound 0 bc_channel_plat.dat
fix		43 solvent solid/bound 1 bc_channel_cc.dat 18
fix     7  platelet com/gyrat 100 1 1 0 data/traj/plat 1 3 SE # compute bond formation
fix		8  move addforce 0 0.5 0.0 0.0

variable c_cut    equal 0.6
variable b_cut    equal 0.6
variable ks       equal 9.1e3
variable r0       equal 0.128
variable kf0      equal 1.18e-3
variable sigf     equal 1.8e-3
variable kr0      equal 5.0e-7
variable sigr     equal 1.62e-3
variable T        equal 0.1

fix     91 adh bond/create/AD 2 4 ${c_cut} 3 ${ks} ${r0} ${kf0} ${sigf} ${T} 10 5 1 ${seed4} catch
fix     91 adh bond/create/AD 2 4 0.6 3 ${ks} ${r0} ${kf0} ${sigf} ${T} 10 5 1 ${seed4} catch
fix     91 adh bond/create/AD 2 4 0.6 3 9100 ${r0} ${kf0} ${sigf} ${T} 10 5 1 ${seed4} catch
fix     91 adh bond/create/AD 2 4 0.6 3 9100 0.128 ${kf0} ${sigf} ${T} 10 5 1 ${seed4} catch
fix     91 adh bond/create/AD 2 4 0.6 3 9100 0.128 0.00118 ${sigf} ${T} 10 5 1 ${seed4} catch
fix     91 adh bond/create/AD 2 4 0.6 3 9100 0.128 0.00118 0.0018 ${T} 10 5 1 ${seed4} catch
fix     91 adh bond/create/AD 2 4 0.6 3 9100 0.128 0.00118 0.0018 0.1 10 5 1 ${seed4} catch
fix     91 adh bond/create/AD 2 4 0.6 3 9100 0.128 0.00118 0.0018 0.1 10 5 1 31821 catch
fix     92 adh bond/break/AD ${b_cut} 3 ${ks} ${r0} ${kr0} ${sigr} ${T} ${seed5} slip
fix     92 adh bond/break/AD 0.6 3 ${ks} ${r0} ${kr0} ${sigr} ${T} ${seed5} slip
fix     92 adh bond/break/AD 0.6 3 9100 ${r0} ${kr0} ${sigr} ${T} ${seed5} slip
fix     92 adh bond/break/AD 0.6 3 9100 0.128 ${kr0} ${sigr} ${T} ${seed5} slip
fix     92 adh bond/break/AD 0.6 3 9100 0.128 5e-07 ${sigr} ${T} ${seed5} slip
fix     92 adh bond/break/AD 0.6 3 9100 0.128 5e-07 0.00162 ${T} ${seed5} slip
fix     92 adh bond/break/AD 0.6 3 9100 0.128 5e-07 0.00162 0.1 ${seed5} slip
fix     92 adh bond/break/AD 0.6 3 9100 0.128 5e-07 0.00162 0.1 32556 slip
#fix     93 platelet bond/create/AD 2 2 0.5 4 2.222e5 0.0 1.18 1.31e-3 0.1 10 1 1 1354 catch
#fix     94 platelet bond/break/AD 0.3 4 2.222e4 0.0 5.0e-7 1.62e-3 0.1 3098 slip
fix		101 platelet molecule
fix		102 cells influx 0.41552 1000 3 2 5 1.0 bank 7 y -5 6.5 0 20 -10 10

#statistics
fix             11 solvent stat/velT box 100 40 10 0 1 50000 data/velT  9   #9  for Thrombin
fix             12 solvent stat/velT box 100 40 10 0 1 50000 data/velT 10   #10 for Prothrombin
fix             13 solvent stat/velT box 100 40 10 0 1 50000 data/velT 11   #11 for Fibrin
fix             14 solvent stat/velT box 100 40 10 0 1 50000 data/velT 12   #12 for Fibrinogen
fix             15 solvent stat/velT box 100 40 10 0 1 50000 data/velT 15   #15 for Anti Thrombin-III
fix             16 solvent stat/velT box 100 40 10 0 1 50000 data/velT 21   #21 for ADP
fix             17 platelet stat/dens box 100 40 10 0 1 50000 data/den_plat
fix             18 move stat/all box 30 40 20 0 1 2000 30 60 0 20 -10 10
fix             20 solvent stat/velT box 100 40 10 0 1 50000 data/velT 1    #1 for IXa
fix             21 solvent stat/velT box 100 40 10 0 1 50000 data/velT 2    #2 for IX
fix             22 solvent stat/velT box 100 40 10 0 1 50000 data/velT 7    #7 for Xa
fix             23 solvent stat/velT box 100 40 10 0 1 50000 data/velT 8    #8 for X

reset_timestep	0
timestep        0.001

compute         mythermo solvent temp/partial 0 1 1
thermo_modify   temp mythermo flush yes lost warn
thermo          500

dump            1 rbc atom 20000 data/dump.rbc.lammpstrj
dump            2 adh atom 1000 data/dump.plat.lammpstrj
dump            3 rbc custom 20000 data/rbc.lammpstrj id mol x y z
dump            4 platelet custom 1000 data/plat.lammpstrj id mol x y z

restart		50000 data/restart
run 		2000010
Memory usage per processor = 37.9597 Mbytes
Step Temp E_pair E_mol TotEng Press 
       0    0.1003595    7.1279812    915620.45    915627.64   -403.98894 
     500   0.10023051    7.1302522    915621.01     915628.2   -406.03262 
    1000   0.10013612    7.1322991    914264.59    914271.79   -403.09499 
    1500    0.1001122    7.1343208    912564.27    912571.47   -402.22677 
    2000   0.10007202    7.1339244    912234.65    912241.85   -406.65118 
    2500   0.10002203    7.1331656    912413.45    912420.65   -402.10216 
    3000   0.10025448      7.13624    913525.76    913532.96   -406.76843 
    3500   0.10006824    7.1336823    914415.49    914422.69   -404.80782 
    4000   0.10021798    7.1342466    914415.39     914422.6   -406.95215 
    4500   0.10014609    7.1360441    914347.88    914355.09   -403.19233 
    5000     0.100311    7.1373028    915913.96    915921.16   -403.30082 
    5500   0.10006777    7.1370552    915843.17    915850.38   -406.53875 
    6000   0.10030721    7.1375519    918123.92    918131.13   -402.78713 
    6500  0.099903108    7.1379224    918567.25    918574.46    -406.7459 
    7000    0.1001122    7.1391629    919033.29    919040.49   -404.76829 
    7500   0.10060691    7.1412672    919033.03    919040.24   -403.59811 
    8000      0.10036    7.1416161    919965.79       919973   -403.68392 
    8500   0.10031472    7.1420965       920628    920635.21    -403.5674 
    9000   0.10039339      7.14312    920765.85    920773.06   -405.45828 
    9500   0.10076383    7.1425198    920953.24    920960.45   -405.61328 
   10000   0.10039872    7.1423947    921171.62    921178.83   -404.59845 
   10500   0.10025843    7.1427448    921534.89     921542.1   -404.12549 
   11000   0.10013834     7.144054    923336.82    923344.03   -402.86801 
   11500     0.100068    7.1442931    923336.76    923343.97   -406.22731 
   12000   0.10022944    7.1453354    925665.57    925672.78   -405.73667 
   12500   0.10065309    7.1453022     927189.4    927196.61    -404.5906 
   13000   0.10052386    7.1458128    926281.23    926288.45    -404.4335 
   13500   0.10045771    7.1474904    927622.22    927629.43   -406.41085 
   14000   0.10022162    7.1474284    930407.82    930415.03    -406.9428 
   14500   0.10017817    7.1474686     932850.8    932858.01   -403.55429 
   15000   0.10060855    7.1484373    934500.83    934508.04   -403.45024 
   15500   0.10020287    7.1476761    934500.84    934508.05   -404.38723 
   16000   0.10008359    7.1461237    937418.43    937425.64   -406.06833 
   16500   0.10008708    7.1449363    939397.39     939404.6   -404.49411 
   17000    0.1002938    7.1453964    941639.96    941647.17   -402.60267 
   17500   0.10029742    7.1470914    943756.44    943763.65   -401.93896 
   18000   0.10038655    7.1463021       944349    944356.21   -406.74923 
   18500   0.10015412     7.147496    944444.85    944452.07   -404.85299 
   19000  0.099972908    7.1468142    944444.92    944452.14   -401.49415 
   19500   0.10014746    7.1465789    944852.35    944859.56   -404.86152 
   20000   0.10034156    7.1436848    946305.41    946312.62   -409.41909 
   20500   0.10124963    7.1456136    946107.92    946115.13    -404.9818 
   21000   0.10027168    7.1457771    946575.35    946582.56   -406.02791 
   21500   0.10014863    7.1439813    947270.41    947277.62   -405.01312 
   22000   0.10028611    7.1428172    947339.77    947346.98   -403.69671 
   22500   0.10055273     7.143392     947295.4    947302.61   -403.86726 
   23000   0.10024016    7.1437487    947295.29     947302.5   -404.87967 
   23500   0.10017434    7.1457887    946913.75    946920.97   -402.19776 
   24000   0.10052002    7.1460269    946588.41    946595.63    -402.2814 
   24500   0.10009671    7.1467061    944898.47    944905.69   -402.41356 
   25000   0.10059929    7.1456982    944609.68     944616.9   -405.32317 
   25500   0.10013481    7.1447683    943748.86    943756.07   -405.29686 
   26000   0.10009115    7.1458192    943474.74    943481.95   -403.38815 
   26500   0.10010732    7.1459016    943474.63    943481.84   -404.45078 
   27000   0.10014982     7.147524    941953.04    941960.25   -405.48513 
   27500   0.10014893    7.1478587    941649.38    941656.59   -403.78691 
   28000   0.10041536    7.1479136    941382.63    941389.84     -403.868 
   28500   0.10039811    7.1481024    940532.45    940539.66   -406.16638 
   29000  0.099768822    7.1499937    940991.63    940998.85   -406.98169 
   29500    0.1004859    7.1509817    940845.41    940852.62   -404.24008 
   30000   0.10049784    7.1494291    940845.37    940852.59   -406.22839 
   30500   0.10038914    7.1487784    940766.68     940773.9   -402.96563 
   31000   0.10014707     7.148863     941623.5    941630.71   -403.92927 
   31500   0.10060601    7.1508211    942459.12    942466.34   -404.93716 
   32000   0.10022302    7.1490962    943855.66    943862.87   -404.08169 
   32500  0.099977605    7.1502588    946141.92    946149.13   -407.29776 
   33000    0.1004717    7.1495968    947154.72    947161.93   -402.32903 
   33500   0.10054713    7.1514431    947154.58     947161.8    -405.4896 
   34000   0.10000833    7.1522386    948033.47    948040.69   -403.72627 
   34500   0.10033896    7.1505404    948859.95    948867.17     -403.166 
   35000   0.10017662    7.1509519    948271.76    948278.97   -404.69417 
   35500   0.10042474    7.1497582    950267.37    950274.59   -402.92682 
   36000   0.10040326    7.1517185    951659.27    951666.49   -404.67303 
   36500   0.10027409     7.149199    952538.34    952545.55   -405.27659 
   37000   0.10010737    7.1497472    953898.02    953905.23   -405.79383 
   37500   0.10026743    7.1508376    953202.45    953209.66   -402.33221 
   38000   0.10046209    7.1519023    953202.35    953209.57    -403.1364 
   38500   0.10031443    7.1512319    954228.63    954235.85    -402.9862 
   39000    0.1004395     7.152904    955848.87    955856.09   -402.51773 
   39500   0.10002031    7.1527605    954596.34    954603.55   -403.86214 
   40000   0.10004637     7.150144    955149.05    955156.26    -402.0137 
   40500   0.10008799    7.1499812     954044.7    954051.92   -404.20272 
   41000   0.10044856    7.1504607    953233.12    953240.33   -404.62079 
   41500   0.10017179    7.1502074    953233.05    953240.27   -402.63721 
   42000   0.10018404     7.149487    952422.86    952430.08   -404.26326 
   42500   0.10022468    7.1496006    950383.71    950390.92   -403.60735 
   43000   0.10034747    7.1493444    949280.01    949287.23   -406.24648 
   43500   0.10019382    7.1504961    946373.91    946381.13   -406.22569 
   44000  0.099996531    7.1500788    943594.09    943601.31   -403.63692 
   44500   0.10017845    7.1481777    941625.41    941632.62   -402.79437 
   45000   0.10021739    7.1491414    938581.48    938588.69   -403.66357 
   45500    0.1003851    7.1506456    936049.58    936056.79   -402.32955 
   46000    0.1000669    7.1519671    936049.57    936056.79    -405.7403 
   46500   0.10008581    7.1507389    934318.11    934325.33   -404.84313 
   47000   0.10025279    7.1515976    933677.68     933684.9   -405.40116 
   47500   0.10028394    7.1533524     932610.9    932618.12   -402.53387 
   48000   0.10013228     7.151903    930174.97    930182.19   -404.10815 
   48500   0.10039378    7.1491196     926791.7    926798.91   -404.21835 
   49000   0.10035712    7.1491453    923780.24    923787.45   -405.79846 
   49500  0.099937244    7.1491041    923780.13    923787.34   -406.51025 
   50000   0.10026155    7.1492091    918911.55    918918.76   -404.77667 
   50500    0.1001288    7.1483654    918911.52    918918.74   -404.42255 
   51000   0.10013109    7.1472236    920875.83    920883.04   -404.87084 
   51500    0.1001039    7.1470222    921592.92    921600.13   -405.36135 
   52000   0.10001303     7.144746    922942.97    922950.18   -404.13783 
   52500   0.10012501    7.1438023    924923.53    924930.74   -405.21151 
   53000   0.10003301    7.1439306    926801.27    926808.48   -405.23234 
   53500   0.10051092    7.1447297     928212.3    928219.51   -404.07163 
   54000   0.10049396    7.1449148    928212.22    928219.43   -405.13484 
   54500   0.10047751    7.1413657    930254.94    930262.15   -406.26791 
   55000   0.10016395    7.1428076    931383.19     931390.4   -404.84922 
   55500   0.10060469    7.1411285    934599.02    934606.23   -403.91617 
   56000   0.10052857    7.1415194    937110.55    937117.76   -404.90045 
   56500   0.10025263    7.1398431    940355.79    940362.99   -405.47196 
   57000   0.10036182    7.1389982    942941.41    942948.62   -401.77852 
   57500    0.1000207    7.1393469    942941.35    942948.55    -405.6504 
   58000   0.10001296    7.1387493    944578.72    944585.93   -405.34383 
   58500    0.1001594    7.1404569    947261.26    947268.47    -406.8842 
   59000  0.099902435    7.1399156    949960.08    949967.29   -403.40083 
   59500    0.1003073    7.1418189    950854.66    950861.87   -407.52785 
   60000   0.10025015    7.1414814    953709.47    953716.68   -404.51246 
   60500   0.10041397    7.1413747    954906.92    954914.13   -405.25539 
   61000   0.10030545    7.1418849    958475.71    958482.92    -404.0632 
   61500   0.10049918    7.1412284    962504.35    962511.56   -404.52659 
   62000   0.10028272    7.1409167    962504.31    962511.52   -405.63689 
   62500   0.10035965    7.1424047     964063.1    964070.31   -406.06659 
   63000    0.1002656    7.1421263    966907.19     966914.4   -405.65228 
   63500   0.10007903    7.1418253    968553.51    968560.72   -401.37773 
   64000   0.10015559    7.1413303    969748.35    969755.56    -402.9081 
   64500    0.1001743    7.1419859    969898.19     969905.4   -405.78935 
   65000   0.10053231    7.1413373    970079.31    970086.52   -406.54367 
   65500  0.099794304    7.1404464    970079.36    970086.57   -405.49691 
   66000   0.10057724    7.1390606    970419.64    970426.85   -401.48169 
   66500   0.10023243    7.1395352    970270.81    970278.02   -403.98548 
   67000   0.10010779     7.139248    970002.75    970009.96   -407.94878 
   67500   0.10007705    7.1380773    969397.07    969404.28   -406.33844 
   68000   0.10012393    7.1365352    969199.02    969206.23   -403.00709 
   68500   0.10031189    7.1368342    969566.24    969573.44   -405.77244 
   69000   0.10015249    7.1373375    967353.75    967360.95   -404.71202 
   69500   0.10012122    7.1376225    967353.63    967360.83   -404.89311 
   70000   0.10020505    7.1358872    965058.06    965065.26   -402.60986 
   70500   0.10008242    7.1341233    964107.76    964114.96   -404.17068 
   71000   0.10053797    7.1343491    961813.09    961820.29   -405.51009 
   71500   0.10024977    7.1329528    959883.75    959890.94   -405.38736 
   72000   0.10057259    7.1315546    959887.08    959894.28   -404.38755 
   72500   0.10035257    7.1304672    958077.45    958084.64   -404.64639 
   73000   0.10037474    7.1299665    958077.56    958084.75   -407.43167 
   73500   0.10047418    7.1311234    956418.05    956425.25   -404.27313 
   74000   0.10025011      7.13029     954622.8    954629.99   -403.10646 
   74500   0.10003482    7.1307927    953407.38    953414.58   -404.26559 
   75000   0.10005617    7.1287514     951567.7     951574.9    -406.9511 
   75500   0.10039964     7.129508    949438.93    949446.13   -404.64852 
   76000   0.10031688    7.1275222    948295.54    948302.73     -407.414 
   76500   0.10038621    7.1259821    948295.39    948302.59   -406.79877 
   77000  0.099967344    7.1274426    947325.93    947333.12    -404.4331 
   77500   0.10003427    7.1273717     946524.5    946531.69   -404.64449 
   78000   0.10044248     7.126574    944000.21    944007.41   -403.53771 
   78500   0.10025586    7.1241434    941937.48    941944.67   -403.62068 
   79000   0.10040365    7.1230223    939674.02    939681.21   -407.08111 
   79500   0.10025499    7.1214354    938326.45    938333.64   -406.98637 
   80000   0.10029656    7.1223384    938326.59    938333.78   -408.82852 
   80500  0.099974745    7.1225415    937645.58    937652.76   -402.48927 
   81000   0.10009124     7.122545    934759.68    934766.86   -404.93039 
   81500   0.10006437    7.1209929    933037.97    933045.16   -404.45467 
   82000   0.10009989    7.1222947    932142.81       932150   -405.40804 
   82500   0.10041686    7.1235883    930703.86    930711.05   -404.63831 
   83000   0.10033462     7.120869    932299.52    932306.71   -404.23486 
   83500   0.10025395     7.118063    932301.86    932309.05   -403.22776 
   84000   0.10054997     7.117741     932301.8    932308.99   -402.46162 
   84500   0.10028963    7.1168156    933448.45    933455.63   -402.96554 
   85000   0.10024182    7.1157329    932935.31    932942.49   -405.41761 
   85500   0.10057921    7.1147647     934512.7    934519.89   -406.46074 
   86000   0.10057881    7.1138014    934761.33    934768.51   -404.16326 
   86500   0.10070528    7.1157503    937480.78    937487.97   -405.24816 
   87000   0.10061824    7.1142625    939738.38    939745.57   -404.19837 
   87500   0.10008434    7.1137727    939738.27    939745.45   -405.51856 
   88000    0.1000984    7.1142626     942199.4    942206.58   -405.96898 
   88500   0.10004749    7.1135904    943429.23    943436.41    -403.5075 
   89000   0.10060444    7.1140427    944868.59    944875.77   -405.07868 
   89500   0.10061898    7.1107193    946704.08    946711.26   -404.69149 
   90000   0.10055102    7.1105151    948705.93     948713.1   -404.75961 
   90500   0.10022056     7.109834    951331.72    951338.89   -404.24979 
   91000    0.1000856    7.1079684    951331.73    951338.91   -402.00294 
   91500   0.10064937    7.1059924    953157.41    953164.58   -403.91807 
   92000    0.1002978    7.1039746    956732.48    956739.65   -405.27587 
   92500   0.10051022    7.1063919    957730.21    957737.38   -405.63241 
   93000   0.10008193    7.1061921    958974.18    958981.35   -404.57521 
   93500   0.10040379     7.106014    961363.63     961370.8   -403.43546 
   94000   0.10038092    7.1042318    962052.83       962060   -403.85794 
   94500   0.10072873    7.1027281    962052.91    962060.08   -404.69022 
   95000   0.10019469    7.1018498    961577.47    961584.63   -403.83447 
   95500   0.10043037    7.1013397    963282.55    963289.72   -406.56638 
   96000   0.10027817    7.0996197    963029.18    963036.34   -404.79672 
   96500   0.10018879    7.0997952    962952.27    962959.43   -403.17401 
   97000   0.10084054    7.1006065    961977.02    961984.19   -403.81974 
   97500   0.10015063    7.0990129    959154.34    959161.51   -402.87234 
   98000   0.09990184    7.1004181    957654.56    957661.73   -406.26968 
   98500   0.10069934     7.100701    957654.57    957661.74   -406.31237 
   99000    0.1003622    7.1003423    955007.31    955014.48    -406.7986 
   99500   0.10027713    7.0998054    953699.49    953706.65   -406.62122 
  100000   0.10078883    7.1005939    951878.72    951885.89   -406.49177 
  100500   0.10018908    7.0998524     951878.7    951885.87   -405.13145 
  101000   0.10022001    7.0962769    951669.16    951676.32   -404.89612 
  101500    0.1004199    7.0984507    951520.98    951528.15   -404.39791 
  102000   0.10030676    7.0962373    948877.48    948884.64   -402.82148 
  102500   0.10046578    7.0978658    946521.22    946528.39    -405.3879 
  103000    0.1000913    7.0958743     945924.4    945931.57   -406.38277 
  103500   0.10024064    7.0954856    944623.33    944630.49    -403.8438 
  104000   0.10027359    7.0966929    944623.44     944630.6   -403.46647 
  104500   0.10055554    7.0968797    943428.71    943435.87   -404.75586 
  105000   0.10034168    7.0949123    943271.48    943278.64   -405.16259 
  105500   0.10036825     7.095242    942612.04     942619.2   -405.95604 
  106000   0.10016271    7.0951729    941779.44     941786.6   -403.66604 
  106500   0.10042392    7.0950166    942885.33     942892.5   -405.96274 
  107000  0.099739128    7.0963901    942727.53     942734.7   -404.54189 
  107500   0.10050333    7.0953455    942727.58    942734.74   -406.45006 
  108000   0.10010035    7.0944984    943694.61    943701.77   -407.68571 
  108500   0.10059779    7.0944027    943034.28    943041.45   -403.29856 
  109000   0.10041398    7.0945048    941303.38    941310.54   -406.08846 
  109500   0.10029182    7.0931155    938054.78    938061.94   -404.85685 
  110000   0.10033384    7.0927502    934859.79    934866.95   -408.12249 
  110500   0.10042531     7.093918    933787.75    933794.91   -404.81188 
  111000   0.10015516    7.0935051    933787.73    933794.89   -404.40766 
  111500    0.1001894    7.0926062     933712.7    933719.86   -402.37109 
  112000   0.10055714    7.0909213    933339.82    933346.97   -403.85797 
  112500   0.10023797     7.092731    931877.12    931884.28   -405.54249 
  113000   0.10044376    7.0895304    932692.86    932700.02   -404.48103 
  113500   0.10013068    7.0898052    932072.05    932079.21   -403.73348 
  114000   0.10037973    7.0899726    932496.62    932503.77   -404.23615 
  114500   0.10008398    7.0905975    932581.59    932588.74   -405.11902 
  115000    0.1002421    7.0895016    932581.46    932588.61   -405.05335 
  115500   0.10024227    7.0899354    933329.09    933336.25   -404.88404 
  116000   0.10046348    7.0903221    931743.21    931750.37    -406.3552 
  116500   0.10034766    7.0899062    930657.34     930664.5   -404.23379 
  117000   0.10024365      7.08911    930961.53    930968.69   -404.84151 
  117500   0.10017783    7.0868881    929782.84       929790   -403.35374 
  118000   0.10022061    7.0886192    931063.65     931070.8   -403.62542 
  118500  0.099903553    7.0885213    931347.88    931355.03   -402.95428 
  119000   0.10012857    7.0866898    933153.55     933160.7   -404.27986 
  119500   0.10044438    7.0877073    934358.42    934365.58   -404.62067 
  120000    0.1004175    7.0868802    935661.38    935668.54   -404.33346 
  120500   0.10008154    7.0902869    937917.67    937924.82   -406.39181 
  121000   0.10013784    7.0898243    939452.42    939459.58   -406.28441 
  121500   0.10006303    7.0899264    939452.46    939459.62   -403.95372 
  122000   0.10032669    7.0886311    939924.29    939931.45   -402.87636 
  122500  0.099818004    7.0882974     941556.5    941563.66    -402.8943 
  123000    0.1003686    7.0887092    943927.43    943934.59   -404.05887 
  123500    0.1002177    7.0888287    945896.03    945903.19   -403.85978 
  124000   0.10033354    7.0899827    946909.36    946916.52   -405.64456 
  124500    0.1001222    7.0886495    948703.12    948710.27    -408.4596 
  125000   0.10048312    7.0879592    948703.23    948710.39   -405.90698 
  125500   0.10055649    7.0894373    950461.69    950468.85   -402.42355 
  126000    0.1005151    7.0886208    952433.22    952440.38   -406.46469 
  126500   0.10054403    7.0889494    954699.56    954706.72   -404.01154 
  127000   0.10041549    7.0898477    955991.12    955998.27   -403.09845 
  127500   0.10044115    7.0900309     958635.3    958642.46   -405.65665 
  128000   0.10036335    7.0902995    960910.67    960917.83    -405.9349 
  128500   0.10054001    7.0907024    960910.61    960917.77    -402.5634 
  129000  0.099973235    7.0900547    961619.79    961626.94   -405.16165 
  129500   0.10081311    7.0893759    963071.51    963078.67   -404.66789 
  130000   0.10051149    7.0877065    965061.36    965068.52   -406.63606 
  130500   0.10005904     7.090221    966064.16    966071.32   -404.23967 
  131000   0.10000531    7.0887092    966429.69    966436.85   -404.52278 
  131500    0.1005009     7.089418    967538.63    967545.79   -406.37813 
  132000  0.099788234    7.0864895    967538.84    967545.99    -403.7832 
  132500    0.1004298    7.0881737    969627.74    969634.89   -406.38641 
  133000   0.10015457    7.0877489    969890.82    969897.97   -404.10372 
  133500    0.1007998    7.0890337    970531.58    970538.74   -401.61999 
  134000   0.10020276    7.0891475    971062.57    971069.73   -405.58604 
  134500   0.10012967     7.091291    970569.59    970576.75   -406.21784 
  135000   0.10013545    7.0921787    969123.36    969130.52   -405.62296 
  135500   0.10002122    7.0918411    969440.16    969447.32   -405.57036 
  136000    0.1005852    7.0924333    969440.23    969447.39   -405.42332 
  136500   0.09985199     7.091728    968943.34    968950.49   -402.87538 
  137000   0.10056432    7.0934438    968665.03     968672.2   -403.33359 
  137500    0.1002112    7.0915847    968596.82    968603.98   -404.25657 
  138000   0.10035486    7.0914546    967296.98    967304.14   -402.76296 
  138500   0.10055649    7.0925564    965639.82    965646.98   -406.80357 
  139000  0.099330944    7.0921076    965336.19    965343.35   -405.32719 
  139500   0.10048802    7.0927541     964401.3    964408.46   -405.86046 
  140000   0.10018231    7.0933335    964401.17    964408.33   -408.21105 
  140500    0.1005549    7.0951382    963692.55    963699.72   -402.30793 
  141000   0.10043054    7.0942136     963465.7    963472.86   -402.88241 
  141500   0.10037519     7.095045     962825.2    962832.36   -403.62606 
  142000   0.10020932    7.0952485    961233.24     961240.4   -402.00371 
  142500   0.10009104     7.099794    960671.95    960679.12   -404.47283 
  143000   0.10019302    7.0988051    960351.51    960358.67   -407.78381 
  143500   0.10015499    7.0994269     957166.9    957174.07   -406.17658 
  144000   0.10004378    7.0994368    957167.01    957174.17   -403.26746 
  144500   0.10020386    7.0992811    956553.83       956561   -403.60243 
  145000   0.10057691    7.0985512     954038.5    954045.66   -402.83586 
  145500   0.10032583    7.1000056    951289.39    951296.56   -405.24992 
  146000   0.10032976    7.0995139    949650.77    949657.94   -405.47635 
  146500   0.10030993    7.1000119    946514.12    946521.29   -405.18687 
  147000   0.10035078    7.1000487    942788.57    942795.74   -405.41972 
  147500   0.10025742    7.0982604    942788.59    942795.76   -402.70927 
  148000  0.099919688    7.0985751    942352.07    942359.23   -406.52019 
  148500   0.10058086    7.1010542    938997.27    939004.44   -404.88026 
  149000  0.099839097    7.1002089    937958.51    937965.68   -403.18453 
  149500   0.10029938    7.1006735    936435.43     936442.6   -404.71688 
  150000     0.100726    7.0995894    933367.95    933375.12   -404.57522 
  150500   0.10020916    7.0983725    933367.91    933375.08   -403.73238 
  151000   0.10009894    7.0980111    933002.05    933009.22   -404.91076 
  151500   0.10045226    7.1004911    931634.71    931641.87   -404.51268 
  152000   0.10057514    7.1012425    931466.16    931473.33   -403.94041 
  152500   0.10009804    7.1019239    929393.11    929400.28   -404.31726 
  153000   0.10029974    7.1027333    928069.86    928077.03   -404.50959 
  153500    0.1002107    7.1025715     926388.3    926395.47   -404.12434 
  154000   0.10006166    7.1026225    926368.09    926375.26   -405.60317 
  154500   0.10017817    7.1035019    926368.23     926375.4   -404.17722 
  155000   0.10008182    7.1034467     925635.2    925642.37    -402.4067 
  155500  0.099828704    7.1051738    925910.84    925918.01   -403.43953 
  156000  0.099920575      7.10495    925693.67    925700.84   -404.86771 
  156500   0.10040939    7.1053449    925937.88    925945.05   -406.63371 
  157000   0.10066088    7.1049687    925938.06    925945.24   -404.22173 
  157500  0.099985368    7.1052264    926845.26    926852.44   -404.10115 
  158000   0.10034235    7.1046107    926126.06    926133.23   -405.09876 
  158500  0.099834215    7.1057939    927333.73    927340.91    -406.3577 
  159000  0.099821267    7.1067201     927773.5    927780.67   -404.36509 
  159500   0.10019975     7.106462    927192.97    927200.15   -402.98627 
  160000   0.10071776     7.106517    927040.77    927047.94   -403.79556 
  160500   0.10012666    7.1057578    926570.49    926577.67   -404.87267 
  161000   0.10042078     7.105682    926570.41    926577.58     -404.974 
  161500   0.10064969     7.106479    926661.92    926669.09   -402.01635 
  162000   0.10049461    7.1068107    927302.31    927309.48   -404.11595 
  162500   0.10039265     7.107639    927702.69    927709.87   -405.75121 
  163000   0.10016626     7.106956    926750.43     926757.6   -402.48295 
  163500   0.10033938    7.1087301    925900.25    925907.42   -405.33147 
  164000   0.10011331    7.1063417    926472.95    926480.12   -405.44266 
  164500   0.10012228    7.1063031     925364.3    925371.48   -405.58957 
  165000   0.10066145    7.1048768    925420.11    925427.28   -403.88278 
  165500   0.10066404     7.106042    925116.48    925123.65   -405.94666 
  166000   0.10009109    7.1052198    926723.81    926730.98   -402.27501 
  166500   0.10025926    7.1075521    928390.63     928397.8   -405.63526 
  167000   0.10044617    7.1069421    928697.63     928704.8   -402.46026 
  167500   0.10043986    7.1087127    929438.07    929445.24   -406.55402 
  168000   0.10004601    7.1089863    929438.23    929445.41   -403.19651 
  168500  0.099958112    7.1078398    929742.32     929749.5   -404.06152 
  169000  0.099740956    7.1087136    929932.85    929940.03   -403.59027 
  169500   0.10003411    7.1084089    929842.52    929849.69   -402.95175 
  170000   0.10058938    7.1082531    928377.56    928384.74   -405.26783 
  170500    0.1003707     7.109668    927554.07    927561.25    -405.7056 
  171000    0.1006328    7.1108496    926104.43    926111.61    -406.8592 
  171500   0.10072939    7.1119303    925032.42     925039.6   -405.84679 
  172000   0.10023809    7.1121548    923448.39    923455.56   -407.14588 
  172500  0.099602161    7.1136278    923145.72     923152.9   -402.22235 
  173000   0.10004713    7.1131036    922022.45    922029.63    -406.4029 
  173500   0.10069057    7.1139868    922420.09    922427.27   -406.90898 
  174000     0.100085    7.1147909    922420.18    922427.36   -403.14659 
  174500   0.10034887    7.1128348    922748.75    922755.93   -404.45975 
  175000   0.10028931    7.1109477    923608.03    923615.21   -405.46681 
  175500   0.10033695    7.1143857     924320.6    924327.78    -404.4017 
  176000   0.10030005    7.1157624    924686.43    924693.62   -404.50622 
  176500    0.1002111    7.1153518    925026.66    925033.84   -402.55169 
  177000   0.10032225    7.1158446    925680.43    925687.61   -403.64046 
  177500   0.10081647    7.1152257    926254.82       926262   -403.68334 
  178000   0.10026834    7.1163532    926173.97    926181.15   -406.32274 
  178500    0.1001519    7.1166483    926169.22    926176.41   -404.39871 
  179000       0.1007    7.1145345    926892.67    926899.85    -405.6512 
  179500   0.10008338    7.1147652    928579.89    928587.07   -404.35329 
  180000  0.099999655    7.1164095    929007.73    929014.91   -405.00782 
  180500   0.10041861    7.1142905    929007.68    929014.86   -405.55237 
  181000   0.10038208    7.1150656    930093.07    930100.25   -403.71457 
  181500    0.1004898     7.115407     931997.8    932004.98   -404.38653 
  182000     0.100726      7.11378    933615.66    933622.85   -403.39885 
  182500  0.099943098    7.1149464    934783.69    934790.87   -402.46957 
  183000  0.099859699    7.1129502    935264.67    935271.85   -403.56048 
  183500   0.10043387    7.1140114    937005.05    937012.23   -405.28777 
  184000  0.099984683    7.1144352    938703.21    938710.39   -401.40983 
  184500   0.10047115    7.1143862    939445.33    939452.51   -403.48067 
  185000   0.10054832    7.1132077    939445.55    939452.73   -404.09923 
  185500   0.10021653     7.112695    938770.62     938777.8    -404.4494 
  186000   0.10021233    7.1142252    939271.22     939278.4   -407.28237 
  186500   0.10028778    7.1116937    939445.93    939453.11    -406.4172 
  187000    0.1004273    7.1121891     939594.2    939601.38   -403.85353 
  187500   0.10047957    7.1140635    940182.96    940190.14   -405.08722 
  188000   0.10017142    7.1132343    938859.78    938866.96   -404.10098 
  188500   0.10023548    7.1133882    938675.22     938682.4   -405.44981 
  189000   0.10057535    7.1122614    938675.34    938682.52   -406.24756 
  189500   0.10035753    7.1137775    937009.24    937016.42   -403.71969 
  190000  0.099975467    7.1135259    935161.69    935168.87   -404.96349 
  190500   0.10034374    7.1145985    933019.53    933026.71   -404.20532 
  191000   0.10054553    7.1145168    930143.16    930150.34   -404.45122 
  191500   0.10039694    7.1144133    926812.92     926820.1   -405.16174 
  192000    0.1002829    7.1146085    924825.96    924833.14   -403.82178 
  192500   0.10052579    7.1139991    921438.78    921445.96   -404.19366 
  193000   0.10002582    7.1138319    919093.91    919101.09   -402.79212 
  193500   0.10058087    7.1125094    919094.07    919101.25   -402.20771 
  194000    0.1000655    7.1143045    914541.61    914548.79   -404.16328 
  194500   0.10032821    7.1142228     911647.6    911654.78   -406.33282 
  195000   0.10038496    7.1117727    907294.46    907301.63   -406.68253 
  195500  0.099831021    7.1126237    902352.23    902359.41   -405.00417 
  196000   0.10048233    7.1124689    897538.43    897545.61   -404.71797 
  196500   0.10034972    7.1134262    892927.33    892934.51   -402.14666 
  197000   0.10012347    7.1140589    889246.61    889253.79   -404.81823 
  197500  0.099911976    7.1148157    886095.95    886103.13   -403.13663 
  198000   0.10051039    7.1139814    886096.03    886103.21   -405.89803 
  198500   0.10058208    7.1156158    883866.59    883873.77   -404.25659 
  199000   0.10019747    7.1142849    881967.44    881974.62   -402.69363 
  199500   0.10050083       7.1152    879995.87    880003.05   -403.22646 
  200000   0.10041379    7.1145008    876763.22     876770.4    -404.4148 
  200500   0.10030387    7.1165499     876763.3    876770.49   -407.11296 
  201000    0.1003152     7.117291    875253.43    875260.61   -404.86885 
  201500   0.10005432    7.1178955    875141.65    875148.84   -404.40352 
  202000  0.099887996    7.1172943    875075.89    875083.07   -406.44705 
  202500   0.10026931    7.1173762    875040.23    875047.41   -404.71639 
  203000   0.10032232    7.1169562     874959.7    874966.89   -404.37963 
  203500   0.10055768    7.1196972    876204.23    876211.42   -402.12116 
  204000   0.10035358    7.1213294    876040.98    876048.17   -405.36647 
  204500   0.10024182    7.1214802     876148.1    876155.28   -403.55921 
  205000   0.10000525    7.1231974    876425.63    876432.82    -404.2452 
  205500   0.10046213     7.120911    876377.26    876384.44   -402.69645 
  206000  0.099521287    7.1220243    877002.55    877009.74    -403.4746 
  206500   0.10005619    7.1207781    878017.72    878024.91   -404.72903 
  207000   0.10064373    7.1233252    879157.44    879164.63   -404.34617 
  207500   0.10045176    7.1238992    879389.05    879396.24   -403.77772 
  208000  0.099817383    7.1218777    880063.02     880070.2   -405.19728 
  208500  0.099772368    7.1230206     880063.1    880070.28   -405.22397 
  209000  0.099994446    7.1243019    880990.34    880997.53   -402.98657 
  209500    0.1001083    7.1248993     880709.6    880716.79   -405.07569 
  210000   0.10045005    7.1259649    880448.07    880455.26   -402.88718 
  210500   0.10048876    7.1283737    881546.67    881553.87   -405.26164 
  211000   0.10041816    7.1290877    881774.31     881781.5   -407.05447 
  211500     0.100336    7.1292777    881301.99    881309.19   -405.97818 
  212000   0.10050819    7.1281559    882013.05    882020.24   -404.28064 
  212500   0.10018357    7.1268576    882409.51    882416.71   -405.34619 
  213000   0.10006719    7.1286318    883046.35    883053.55   -406.37547 
  213500   0.10036005    7.1297993     883329.8    883336.99   -402.60429 
  214000   0.10013087    7.1321305    883498.22    883505.42   -404.09336 
  214500  0.099841662    7.1323874    884309.07    884316.27    -405.5724 
  215000   0.10030482    7.1312965    884868.49    884875.69   -405.93118 
  215500   0.10001347     7.133805    885719.97    885727.17   -403.48503 
  216000    0.1003494    7.1343454    886776.35    886783.55   -405.15094 
  216500  0.099780493    7.1346288    885894.07    885901.27   -403.86355 
  217000   0.10057848    7.1333325    886255.36    886262.56   -405.16642 
  217500   0.10039542    7.1370547    886255.35    886262.55   -405.71154 
  218000   0.10029436    7.1381126    886720.88    886728.09   -404.97063 
  218500   0.10002237    7.1390192    887858.03    887865.24   -403.99428 
  219000    0.1000866    7.1401698    887858.08    887865.29   -407.10714 
  219500   0.10066066    7.1392672    889493.25    889500.46   -403.96725 
  220000  0.099973264    7.1427033    890160.37    890167.58   -404.49363 
  220500   0.10020203    7.1449013    891386.98    891394.19   -402.45539 
  221000    0.1000223    7.1458064    891386.94    891394.15   -402.73157 
  221500    0.1003188    7.1446299    893082.89     893090.1   -403.98971 
  222000   0.10024031    7.1460442    896318.79       896326   -403.30937 
  222500   0.10034992    7.1457786    899692.41    899699.63    -404.1761 
  223000   0.10011729    7.1467087    901263.71    901270.92   -404.26912 
  223500   0.10011673    7.1467081    905288.03    905295.24   -404.26096 
  224000  0.099901949    7.1470983    907598.62    907605.84   -405.16249 
  224500   0.10000604    7.1470101    907598.63    907605.85    -406.1815 
  225000   0.10036101    7.1473738     909524.2    909531.42   -405.98251 
  225500   0.10040532    7.1476204    912037.95    912045.16   -402.19024 
  226000    0.1004345    7.1474764    914943.77    914950.99   -406.93752 
  226500   0.10007877    7.1491388    917215.01    917222.23   -403.53566 
  227000   0.10064396    7.1501326    917647.65    917654.86   -404.08807 
  227500   0.10037282    7.1514538    920662.91    920670.13    -404.0057 
  228000  0.099521857    7.1524444    921375.52    921382.74   -405.40362 
  228500   0.10041429    7.1528157    924800.34    924807.56    -404.7726 
  229000  0.099772932    7.1538843    928622.35    928629.57   -404.03531 
  229500   0.10043418     7.153391    931849.36    931856.58   -405.41744 
  230000   0.10028492    7.1528187    933599.75    933606.97   -403.42337 
  230500   0.10062834    7.1543148    937366.25    937373.47   -403.85335 
  231000   0.10027021    7.1537902    937366.16    937373.38    -404.5188 
  231500   0.10029903    7.1529097    940511.12    940518.34   -403.58849 
  232000   0.10052269    7.1526418    940987.07    940994.29   -404.71732 
  232500   0.10013048     7.153746     943529.1    943536.32   -402.95583 
  233000    0.1006401    7.1549909    944769.29    944776.51   -405.88094 
  233500   0.10043231    7.1569785    945591.01    945598.23   -403.53646 
  234000  0.099940822    7.1581356    945745.91    945753.13     -405.259 
  234500   0.10062763     7.156183    945987.63    945994.85   -403.47193 
  235000  0.099662188    7.1575445    946628.53    946635.75   -403.96716 
  235500    0.1004597    7.1577867    946565.97    946573.19   -406.48249 
  236000   0.10048459    7.1581185    947053.79    947061.01   -403.61303 
  236500   0.10010572    7.1589162    946275.42    946282.64   -403.43178 
  237000   0.10050594    7.1620562    945594.37    945601.59   -403.73726 
  237500   0.10014579    7.1617934    945594.29    945601.52   -404.25241 
  238000   0.10044157    7.1603121    945925.54    945932.77   -406.38413 
  238500   0.10008482    7.1601191    947290.32    947297.55   -406.17289 
  239000    0.1001601    7.1602339    946164.95    946172.17   -405.07979 
  239500   0.10002811    7.1610005    945217.89    945225.12   -404.48855 
  240000    0.1000517     7.159915    944733.86    944741.08   -406.55666 
  240500  0.099871872    7.1629814    943973.71    943980.94   -404.54186 
  241000   0.10050126    7.1646118    943667.92    943675.15   -405.95758 
  241500  0.099976597    7.1633004    941278.81    941286.04   -404.46731 
  242000   0.10054597    7.1648751    939420.91    939428.14   -404.07043 
  242500   0.10027507    7.1648792     937993.5    938000.73   -405.11419 
  243000   0.10032698    7.1637251    935871.33    935878.56   -406.19347 
  243500   0.10008536    7.1639507    935871.45    935878.68   -402.68983 
  244000   0.10025536    7.1640642    932229.33    932236.56   -403.43108 
  244500   0.09988033    7.1656535    929715.27     929722.5   -407.21938 
  245000   0.10024468    7.1655773    927208.28    927215.51   -406.99725 
  245500   0.10020129    7.1667702    926533.04    926540.27   -405.62395 
  246000   0.10027896    7.1664809    923723.17    923730.41   -405.85888 
  246500  0.099996347    7.1664251    921802.64    921809.88   -403.38475 
  247000   0.10063729    7.1655795    918834.31    918841.54   -404.12352 
  247500   0.10039135     7.166618    918834.19    918841.42   -405.46528 
  248000   0.10046249    7.1661772    916001.59    916008.82    -405.9439 
  248500    0.1005267    7.1649368    912394.15    912401.39   -403.25673 
  249000   0.09991233    7.1629665    912394.24    912401.47   -404.11549 
  249500  0.099927168    7.1635882    909898.49    909905.72   -404.55607 
  250000   0.10056864    7.1627321    906488.11    906495.34   -402.08662 
  250500  0.099930047    7.1619397    906487.79    906495.02   -406.78922 
  251000   0.10049828    7.1628316     903568.1    903575.33   -406.03273 
  251500   0.10008295    7.1644072    901424.25    901431.48   -404.03268 
  252000   0.10027892    7.1643619     900177.1    900184.33   -404.36313 
  252500    0.1003203    7.1644782    900177.05    900184.28   -403.95671 
  253000   0.10051748    7.1640784    898049.43    898056.66   -405.32223 
  253500   0.10062334    7.1621861    896778.26    896785.49   -404.71811 
  254000   0.10006099    7.1626977    896080.19    896087.42   -405.45275 
  254500   0.09989953    7.1618608    894797.07     894804.3   -405.14203 
  255000   0.10051164    7.1606078    894429.33    894436.55   -404.64938 
  255500   0.10039852    7.1607408    893979.48    893986.71   -401.62018 
  256000   0.10009333    7.1609761       893891    893898.23   -402.89749 
  256500   0.10038181    7.1627634    895335.55    895342.78   -404.63641 
  257000   0.10019452    7.1628894    895352.55    895359.78   -405.88431 
  257500  0.099986299    7.1637719    895082.24    895089.47   -401.79107 
  258000   0.10008622     7.164547    896076.79    896084.02   -404.78544 
  258500   0.10015159    7.1632892    898778.65    898785.88    -405.5893 
  259000   0.10021353    7.1642861    902905.52    902912.75   -403.98325 
  259500  0.099735972    7.1633864    902905.53    902912.76   -405.18024 
  260000   0.10020386    7.1631975    905453.55    905460.78   -403.45774 
  260500   0.10042981    7.1644126    907676.38    907683.61    -403.3548 
  261000  0.099849374    7.1632246    910824.08    910831.31   -406.92864 
  261500   0.10033617    7.1630385    914402.83    914410.06   -404.88821 
  262000   0.10027968    7.1619695    918273.45    918280.68   -405.90729 
  262500   0.10027828    7.1611521    922251.32    922258.55   -401.39637 
  263000   0.10019567    7.1617071    922251.24    922258.47   -405.76961 
  263500   0.10015705    7.1619415    925160.14    925167.36   -404.93766 
  264000   0.10014392    7.1621273    929066.92    929074.15   -403.53356 
  264500  0.099978934    7.1607606    933497.22    933504.45   -406.19359 
  265000   0.10022557    7.1611391    935697.82    935705.05   -404.97318 
  265500   0.09993027    7.1604777    937006.64    937013.86   -404.74823 
  266000   0.10005797    7.1606671    937006.53    937013.76   -404.22542 
  266500   0.10027128    7.1607548    939233.69    939240.91   -405.90851 
  267000   0.10049794    7.1596823    940588.07    940595.29    -406.6713 
  267500  0.099851051    7.1596073    943256.51    943263.73   -405.60549 
  268000   0.10008611    7.1579268    944739.96    944747.19   -401.49444 
  268500   0.10026385    7.1598549    946832.23    946839.46   -405.57885 
  269000   0.10015314    7.1608274    948135.76    948142.99   -406.79356 
  269500     0.100237    7.1620555    948573.47     948580.7   -401.54767 
  270000   0.10046844    7.1619051    947867.47     947874.7   -402.18155 
  270500  0.099950506    7.1600814    948665.32    948672.54   -403.77389 
  271000    0.1006212    7.1611088    947808.53    947815.76   -405.68409 
  271500   0.10001605    7.1596027    948821.86    948829.09   -406.48925 
  272000   0.10037045    7.1602596    950528.57     950535.8   -405.26318 
  272500   0.10014208    7.1606769    949827.11    949834.34   -405.82069 
  273000   0.10039744    7.1603996    950329.09    950336.31   -404.37596 
  273500   0.10017354    7.1597208    950329.14    950336.37   -403.71408 
  274000   0.10049157    7.1612658    948795.96    948803.19   -402.67505 
  274500   0.10027667    7.1613909    947937.41    947944.63   -404.83722 
  275000   0.10034079    7.1605198    946119.05    946126.28   -404.08794 
  275500    0.1003784    7.1592178    944122.63    944129.86   -406.55557 
  276000   0.10033282    7.1612233    944122.59    944129.82   -407.40286 
  276500    0.1001536    7.1602094    942813.22    942820.45   -403.67667 
  277000     0.100329    7.1599923    940733.65    940740.87   -407.95412 
  277500   0.10064444    7.1601046    939738.77    939745.99   -406.85854 
  278000   0.10005359    7.1595168    939738.79    939746.01   -404.76928 
  278500   0.10021193    7.1595704    937953.92    937961.15   -404.35163 
  279000   0.10033037    7.1590809    936998.59    937005.82   -406.24627 
  279500   0.10004379    7.1585411    934841.61    934848.84   -405.54493 
  280000    0.1002035    7.1597861    934189.03    934196.26   -401.32649 
  280500  0.099928176    7.1580579     933605.5    933612.72   -407.37286 
  281000  0.099962042    7.1591039    931143.16    931150.39   -403.63355 
  281500   0.10028281    7.1577686    929169.57    929176.79   -404.35592 
  282000  0.099906324    7.1569439    929169.62    929176.84   -401.97058 
  282500   0.10015535    7.1556049    929005.89    929013.11   -406.72336 
  283000   0.10088537    7.1559104    928104.81    928112.03   -405.95813 
  283500   0.10044762     7.155479    927917.12    927924.35   -407.86212 
  284000   0.10027328    7.1555062    928383.86    928391.09   -403.33242 
  284500  0.099944023    7.1540852    927915.34    927922.56   -403.07202 
  285000  0.099905227    7.1545395    927915.35    927922.57   -402.97789 
  285500   0.10021532     7.153607    927184.32    927191.54   -407.66495 
  286000    0.1000473    7.1548301    928086.18     928093.4   -403.94705 
  286500    0.1001743    7.1556224    928414.83    928422.05   -405.94249 
  287000   0.10005516    7.1555771    928174.86    928182.08   -404.41051 
  287500   0.10010625    7.1545093    930192.13    930199.35    -405.7191 
  288000  0.099704512    7.1540273    933471.94    933479.16   -403.50634 
  288500    0.1000159    7.1535913    933472.06    933479.28   -406.23979 
  289000  0.099877485     7.152296    935302.78       935310   -403.67475 
  289500   0.10005921    7.1513109     939319.1    939326.31   -403.53735 
  290000   0.10038482    7.1516935    941371.69    941378.91   -405.38722 
  290500   0.10007046    7.1506485     942015.7    942022.91   -405.90789 
  291000   0.10010735     7.149953    944141.32    944148.53   -405.85126 
  291500   0.10031938    7.1488074     944561.9    944569.11   -405.26893 
  292000   0.10012889    7.1487202    946384.24    946391.46   -404.08191 
  292500  0.099916391    7.1500194     947522.9    947530.12   -403.90666 
  293000  0.099856985    7.1489883    947522.99     947530.2   -406.85061 
  293500   0.10031917     7.148318    948595.18    948602.39   -407.52147 
  294000   0.10023548    7.1491711    948676.99    948684.21   -405.44525 
  294500   0.10004123    7.1480698    950485.44    950492.65   -403.40587 
  295000   0.10075387     7.145578    950098.47    950105.68   -404.43857 
  295500   0.10020269    7.1454817    952395.15    952402.36   -405.44582 
  296000   0.10026357    7.1463004     953334.4    953341.61   -406.16368 
  296500  0.099947252    7.1455498    953691.73    953698.94    -403.4006 
  297000   0.10039022    7.1471605    954218.97    954226.19   -404.74627 
  297500   0.10018563    7.1449147     954186.8    954194.02   -403.99093 
  298000   0.10032762    7.1463656    953647.08    953654.29   -402.78585 
  298500  0.099989386    7.1464978    953647.14    953654.35    -405.8961 
  299000   0.10032232    7.1451459    952047.64    952054.85   -403.33623 
  299500   0.10036448    7.1452019    952001.09     952008.3   -407.16972 
  300000   0.10027534    7.1454011    949999.99     950007.2   -402.99298 
  300500   0.10053282    7.1460708    949999.94    950007.15   -405.66563 
  301000   0.10017745    7.1464454    949368.01    949375.23    -403.5955 
  301500   0.10018694    7.1444173    948055.95    948063.16   -403.72129 
  302000   0.10014334    7.1432697    945824.52    945831.73   -404.59032 
  302500   0.10005349    7.1454782     943479.2    943486.41   -406.04778 
  303000   0.10006524    7.1460802    940531.71    940538.92   -405.89284 
  303500   0.10003589    7.1440106    939715.25    939722.46   -403.84696 
  304000   0.10018405    7.1467779    939115.12    939122.33   -404.41499 
  304500    0.1000703     7.147617    936870.74    936877.95   -403.94142 
  305000   0.10028329    7.1481283    934275.83    934283.05   -403.29169 
  305500   0.10054971    7.1495322     932887.3    932894.52   -404.87402 
  306000   0.10010842     7.149244    929691.78       929699   -405.83152 
  306500  0.099979467    7.1505276    927256.54    927263.76   -402.46876 
  307000   0.10058743    7.1496806    924204.54    924211.75   -404.02098 
  307500   0.10014022    7.1476493     923099.5    923106.71   -404.36236 
  308000   0.10026668    7.1503265    921543.82    921551.03   -403.69171 
  308500   0.10046102    7.1489972    920841.13    920848.34   -403.60821 
  309000   0.10043639    7.1479778    919484.09    919491.31    -405.4509 
  309500   0.10035605    7.1489186    917350.52    917357.74   -405.53045 
  310000   0.10039166    7.1483016    916146.44    916153.66   -403.01712 
  310500   0.10012943    7.1505234    916555.83    916563.04   -405.21513 
  311000    0.1002437    7.1517564     916555.8    916563.02    -406.0798 
  311500   0.10019939    7.1504141    918667.54    918674.76   -405.48339 
  312000   0.10015953      7.15174    918667.55    918674.77   -405.35132 
  312500    0.1002898    7.1506136    919631.83    919639.05   -406.80083 
  313000   0.10018858    7.1515106    921143.69    921150.91   -404.51109 
  313500   0.10013817    7.1529233    922294.67    922301.89   -405.16663 
  314000   0.10032912    7.1539734    924757.94    924765.16   -403.05702 
  314500  0.099497023    7.1564684    925169.38     925176.6   -405.73177 
  315000   0.10052984    7.1544726    926039.15    926046.37   -404.97538 
  315500   0.10030239    7.1545955    926039.26    926046.48   -404.37212 
  316000   0.10004822    7.1562834    928040.86    928048.08   -406.01828 
  316500   0.10037276    7.1564309    929204.21    929211.44    -404.9492 
  317000   0.10034619    7.1584541    929204.09    929211.32   -405.14734 
  317500  0.099943281    7.1571576    929148.86    929156.08    -406.7583 
  318000    0.1000954    7.1571663    928975.35    928982.57   -405.58799 
  318500   0.10029714    7.1568855    932345.95    932353.17   -403.46767 
  319000   0.10001121    7.1572903    934285.41    934292.64   -404.74301 
  319500   0.10072188    7.1581403    934401.94    934409.16   -404.88353 
  320000   0.10004623    7.1591417    935407.08     935414.3   -406.66817 
  320500    0.1005576    7.1607534    934849.76    934856.98   -404.03751 
  321000    0.1004406    7.1618508     933650.1    933657.33   -406.73412 
  321500   0.10052382    7.1637083    932429.08    932436.31   -404.04369 
  322000   0.10005899     7.160667    931399.74    931406.96    -406.3952 
  322500  0.099757702    7.1611631    930458.02    930465.25   -403.73534 
  323000   0.10052462    7.1624161    930457.97     930465.2   -403.51912 
  323500  0.099747554    7.1647367    927918.89    927926.12   -403.50348 
  324000   0.10040272     7.164767    927419.74    927426.97   -407.35327 
  324500  0.099673432    7.1632519    927437.24    927444.47   -404.25398 
  325000   0.10051309    7.1629251    927539.87     927547.1   -405.03682 
  325500   0.10004148    7.1654918    928963.46    928970.69   -404.63857 
  326000   0.10046166    7.1650795    930227.56    930234.79   -403.89932 
  326500   0.10024484    7.1645353    930309.35    930316.58   -406.53848 
  327000   0.10005954    7.1651735    932581.15    932588.38   -405.25786 
  327500    0.1002074    7.1652169    933227.31    933234.54   -405.30442 
  328000  0.099857415    7.1669634     934536.5    934543.74   -402.37096 
  328500   0.10025527    7.1660138    934392.65    934399.88   -405.13984 
  329000   0.10013309    7.1650464    935170.74    935177.97   -404.43866 
  329500    0.1006098    7.1651482     935186.7    935193.93   -404.26581 
  330000   0.10041799    7.1669626    938051.48    938058.72   -405.22712 
  330500   0.10026681    7.1679017    938360.21    938367.45   -405.65299 
  331000   0.10017095    7.1694761    940371.93    940379.16     -405.788 
  331500   0.10034317    7.1714185    940552.37    940559.61   -405.26915 
  332000   0.10016158    7.1725635     941730.4    941737.64   -404.19937 
  332500   0.10032163    7.1722621    942343.08    942350.32   -406.22364 
  333000   0.10030768    7.1698984    943674.76       943682   -405.00103 
  333500   0.10015216    7.1717327    944389.82    944397.06   -404.75205 
  334000   0.10024319    7.1716185    945426.47    945433.71   -405.51184 
  334500   0.10004704    7.1713468    945583.78    945591.02   -404.79721 
  335000   0.10010838    7.1710968    944860.58    944867.82    -405.6835 
  335500   0.10003444    7.1715605    944860.53    944867.77   -405.53558 
  336000   0.10022937    7.1718154    944052.83    944060.07   -404.78129 
  336500   0.10051457    7.1728523    944607.89    944615.13   -404.62253 
  337000   0.10016959    7.1719349    944287.67    944294.91   -403.92142 
  337500   0.10026749    7.1730005    946319.77    946327.01   -404.52569 
  338000    0.1001281    7.1742602    946319.74    946326.99   -405.14875 
  338500   0.10037763    7.1737161    947118.45    947125.69   -405.78243 
  339000   0.10032459    7.1764587    947518.45    947525.69   -404.79861 
  339500   0.10032548    7.1762967    946735.69    946742.94   -405.74748 
  340000   0.10044119    7.1759933    945584.13    945591.37   -406.53436 
  340500   0.10039864    7.1761639    945214.82    945222.06    -407.8264 
  341000   0.10028005     7.178025    944865.46    944872.71   -405.26063 
  341500   0.10009236    7.1783749    944865.47    944872.72   -401.92498 
  342000   0.10017033    7.1802579    943611.45     943618.7   -404.16116 
  342500   0.10015182    7.1803599    940108.67    940115.92   -404.53622 
  343000  0.099826143    7.1824291    939303.53    939310.78   -404.67419 
  343500   0.10059137    7.1826219    937548.67    937555.92   -406.68624 
  344000   0.10046577    7.1842608    937548.68    937555.93   -405.12898 
  344500  0.099995222    7.1828335    936656.21    936663.45   -403.50416 
  345000  0.099854587     7.183786    936314.01    936321.27   -403.10759 
  345500   0.10054699    7.1834476    936313.93    936321.18   -402.80063 
  346000   0.10012591     7.183066    934105.33    934112.58   -403.65327 
  346500   0.10030024    7.1822921    932159.05     932166.3   -402.85811 
  347000   0.10018238     7.180552    930933.36    930940.61   -403.69854 
  347500  0.099611226    7.1795556    929226.45    929233.69   -405.49033 
  348000   0.10023152     7.180925     929226.4    929233.65   -403.20073 
  348500   0.10050017    7.1821301    927537.69    927544.93   -405.32133 
  349000    0.1001855     7.180777    928298.97    928306.22   -403.16739 
  349500    0.1002961    7.1800106    928603.81    928611.06   -404.16751 
  350000   0.10017668    7.1811688    927971.82    927979.07   -405.96979 
  350500  0.099865717    7.1790879    927971.87    927979.12   -406.12144 
  351000  0.099980178    7.1824961    926898.93    926906.18   -404.09986 
  351500  0.099928345    7.1810451    927156.34    927163.59   -402.96863 
  352000   0.10035633    7.1810027    926755.61    926762.86   -404.22482 
  352500   0.10020908    7.1809244    925845.61    925852.86   -407.02693 
  353000     0.100276    7.1812525    925849.71    925856.96   -404.93026 
  353500   0.10017044    7.1812222    925849.75       925857   -406.73813 
  354000   0.10019303    7.1819608    925046.55     925053.8   -404.76876 
  354500   0.10048032    7.1818989    926068.97    926076.22   -405.20595 
  355000   0.10010107    7.1806638    927355.54    927362.79   -404.58033 
  355500   0.10038358     7.180345    927142.56    927149.81    -405.6142 
  356000   0.10012193    7.1814661    927785.68    927792.93   -404.15238 
  356500   0.10036872    7.1809113    927785.55     927792.8   -403.32131 
  357000   0.10049732    7.1828728    930331.99    930339.24    -405.9737 
  357500   0.10018786    7.1821058     931616.6    931623.85   -403.53977 
  358000   0.10047174    7.1807648    933036.21    933043.45   -403.94067 
  358500   0.10034261    7.1817214    934263.09    934270.33   -405.14691 
  359000   0.10004302    7.1822373    935418.66     935425.9    -405.4779 
  359500   0.10003231     7.183435    935723.99    935731.24   -406.14214 
  360000   0.10069401    7.1846487    935723.85     935731.1   -404.54625 
  360500   0.10029575    7.1856664    938255.17    938262.42   -403.18332 
  361000    0.1004516     7.182628    940949.47    940956.72    -404.3838 
  361500   0.09970992    7.1819573    941530.61    941537.86   -404.66582 
  362000   0.10017687    7.1823384    941246.75    941253.99   -404.29409 
  362500   0.10052855    7.1800798    943936.29    943943.53   -403.69801 
  363000   0.10018167     7.179916    945862.49    945869.73   -404.57352 
  363500    0.1003347    7.1792802    945862.57    945869.82   -403.42523 
  364000   0.10041565    7.1800304    948302.45    948309.69   -403.93062 
  364500   0.10038027    7.1781964    949583.39    949590.63   -402.29477 
  365000   0.10041538     7.179518    951437.72    951444.97   -409.73979 
  365500   0.10054226    7.1794603    952351.46    952358.71   -403.50457 
  366000   0.10029359    7.1800256    954149.35     954156.6    -403.8207 
  366500    0.1004049    7.1795036    956482.22    956489.47    -404.0527 
  367000   0.10037394     7.179775    957501.61    957508.86   -404.66739 
  367500   0.10047627    7.1791557    957501.57    957508.82   -403.27624 
  368000  0.099958724    7.1789737    958621.02    958628.26   -403.20982 
  368500   0.10069038    7.1787034    959894.02    959901.27   -405.41138 
  369000   0.10039493     7.176937     962640.8    962648.05   -403.35346 
  369500   0.10072866    7.1766642    963360.49    963367.73    -405.5117 
  370000   0.10017483    7.1774016    965464.41    965471.66   -406.91102 
  370500   0.10032401     7.175809    965464.36     965471.6   -405.41216 
  371000   0.10024259    7.1750268    966126.82    966134.06   -403.60442 
  371500   0.10009844    7.1768455    968213.32    968220.56   -404.17698 
  372000   0.10039944    7.1764986    969868.57    969875.81   -404.93717 
  372500   0.10042285    7.1772982    970943.27    970950.52   -403.66696 
  373000  0.099892923    7.1760427    973297.73    973304.97    -404.6288 
  373500  0.099985492     7.175939    973297.81    973305.05   -403.54519 
  374000   0.10061709    7.1755698    972771.31    972778.55   -403.29973 
  374500   0.10049214    7.1739224    973169.16     973176.4   -405.82238 
  375000   0.10058282     7.175792    972756.42    972763.66   -406.99907 
  375500   0.10071246    7.1754565    972357.85    972365.09   -404.48911 
  376000   0.10004444    7.1733689    971469.65    971476.89   -407.13459 
  376500    0.1004749    7.1722273    971547.59    971554.83   -404.71415 
  377000   0.10030488    7.1726607    971547.58    971554.82   -404.32337 
  377500    0.1002887    7.1705825    972625.71    972632.95   -406.46227 
  378000   0.10009413    7.1713553    973443.89    973451.13   -404.59193 
  378500   0.10010348    7.1736824    975169.17    975176.41   -404.57988 
  379000   0.10050438    7.1723306    975573.99    975581.23   -403.76695 
  379500   0.09992984    7.1699425    975928.36     975935.6   -403.75618 
  380000   0.10017053    7.1710812    976108.72    976115.96   -405.44124 
  380500   0.10004145    7.1715094     978086.5    978093.74   -404.14119 
  381000   0.10052574    7.1703106    978086.45    978093.69   -406.96895 
  381500   0.10051024    7.1704885    976940.44    976947.68   -404.42327 
  382000   0.10055126    7.1705469    976208.77    976216.01   -403.85833 
  382500  0.099714357    7.1708192    975395.61    975402.85   -407.41401 
  383000   0.10010612    7.1694527    974265.14    974272.37   -403.82257 
  383500  0.099961179     7.168334    974518.45    974525.69   -403.78145 
  384000  0.099717607    7.1669826    975396.21    975403.44   -406.04152 
  384500  0.099727923       7.1678    975673.62    975680.85   -405.66431 
  385000   0.10054684    7.1675797    975673.43    975680.66   -407.47465 
  385500   0.10002703    7.1681049    975254.03    975261.26   -404.59439 
  386000   0.10007706    7.1664757    974062.29    974069.53   -402.92939 
  386500    0.1000224    7.1663585    972737.82    972745.05   -404.88547 
  387000   0.10092723    7.1650015    972737.69    972744.93   -405.91328 
  387500   0.10015942    7.1641538     971950.7    971957.93   -402.59287 
  388000   0.10042564    7.1652878    971137.73    971144.97   -404.86226 
  388500   0.10027263    7.1649049    971137.92    971145.15   -403.87927 
  389000  0.099999929    7.1645944    968944.88    968952.11   -404.87614 
  389500   0.10075266    7.1629487    967883.05    967890.28   -403.68491 
  390000   0.10043309    7.1644132    967174.73    967181.96   -404.69435 
  390500   0.10014725    7.1638458     967174.5    967181.73   -403.98969 
  391000   0.10028971    7.1642815    963989.52    963996.75    -405.2843 
  391500   0.10011494    7.1624869    960736.43    960743.66   -403.71042 
  392000  0.099644294    7.1637805     959934.1    959941.33   -403.49229 
  392500   0.10020223     7.163211    957674.26    957681.49   -405.17014 
  393000   0.10008723    7.1648249    954899.83    954907.06   -407.18565 
  393500   0.10057929    7.1636281    954563.03    954570.26   -407.14023 
  394000  0.099989778    7.1643399    954563.16    954570.39   -405.91071 
  394500   0.10009831    7.1635195    952461.67     952468.9   -405.70534 
  395000    0.1003214    7.1633421    952184.71    952191.94   -408.87098 
  395500  0.099933823    7.1632739    950134.49    950141.72   -403.65587 
  396000   0.10006695    7.1640797    948202.12    948209.35   -402.65838 
  396500   0.10012238    7.1628806    945616.82    945624.05   -405.77428 
  397000   0.10047381    7.1631453    943300.54    943307.77   -404.05676 
  397500   0.10014674    7.1637258    941878.99    941886.22   -403.12701 
  398000    0.1001215    7.1643892    940571.19    940578.42   -404.63928 
  398500    0.1005359    7.1634714    939112.87     939120.1   -405.13229 
  399000   0.10034682    7.1649126    937676.63    937683.86   -403.01895 
  399500   0.10020033    7.1648412    935862.27     935869.5   -403.49165 
  400000   0.10046026    7.1644785    934336.85    934344.08   -402.97593 
  400500    0.1002894    7.1629664    934336.85    934344.08   -405.85895 
  401000   0.10020505    7.1627366     933817.9    933825.12   -403.16375 
  401500    0.1002992    7.1616603    932070.02    932077.24   -403.36397 
  402000   0.10071481     7.163074     930717.7    930724.93   -403.23223 
  402500   0.10047844    7.1639209    928982.28    928989.51   -404.38124 
  403000   0.10006866    7.1646051    926399.84    926407.07   -407.07962 
  403500    0.1002855    7.1642686    924356.44    924363.67   -402.17415 
  404000    0.1001524    7.1654219    924356.49    924363.73   -406.14863 
  404500    0.1001395    7.1637095    923373.28    923380.51   -405.30133 
  405000   0.10026907    7.1647277    922202.23    922209.46   -404.88297 
  405500   0.10027503    7.1668423    920729.16    920736.39   -403.24334 
  406000   0.10038567    7.1663842    920492.66    920499.89   -403.07253 
  406500   0.09996427    7.1642352    918915.76    918922.99   -405.75517 
  407000   0.10042609    7.1661852    918682.42    918689.65   -404.43456 
  407500   0.10060446    7.1652986    918529.73    918536.97   -404.04512 
  408000   0.10062035    7.1642154     918404.5    918411.73   -405.01394 
  408500   0.10023984    7.1634219    918496.56    918503.79   -405.42284 
  409000   0.10036266    7.1633792    919201.06    919208.29    -404.7521 
  409500   0.10025572    7.1638811    919065.44    919072.67   -404.79499 
  410000    0.1001424    7.1648277    920264.25    920271.48   -405.05916 
  410500   0.10036239    7.1650599    921141.79    921149.02   -404.52174 
  411000   0.10037853    7.1640709    921496.46    921503.69   -403.38999 
  411500  0.099941939    7.1629428    921552.76    921559.99   -406.61728 
  412000   0.10046267     7.163907    920790.14    920797.37    -404.6669 
  412500   0.10059414    7.1634448    921369.83    921377.06   -405.28863 
  413000  0.099883122    7.1652958    922593.61    922600.84   -406.22787 
  413500   0.10058269    7.1664196    922593.61    922600.85   -404.32354 
  414000   0.10013566    7.1649695    923785.84    923793.07   -406.06797 
  414500   0.10029359    7.1643472    924321.31    924328.54   -405.66552 
  415000   0.10038504    7.1636448    924480.19    924487.42   -405.48022 
  415500   0.10032485    7.1648008    925424.06    925431.29   -406.11091 
  416000   0.10067263    7.1657171    925424.03    925431.26   -402.92141 
  416500   0.10044407    7.1661184    927353.71    927360.94   -404.14014 
  417000   0.10044608    7.1648377    929261.09    929268.32   -403.18074 
  417500  0.099792323    7.1644361    932312.48    932319.71   -406.09098 
  418000  0.099680132    7.1637994     934611.1    934618.33   -406.79538 
  418500    0.1003098    7.1623831    935720.17    935727.39   -404.83627 
  419000   0.10077044    7.1627179    939087.89    939095.12   -404.36297 
  419500   0.10042794    7.1630117    940325.42    940332.65    -405.7947 
  420000   0.10009144    7.1637085    940276.95    940284.18   -405.42004 
  420500   0.10005733    7.1659374    940756.14    940763.37   -405.12332 
  421000   0.10051259    7.1645815    940756.08    940763.31   -404.66665 
  421500   0.10026087    7.1636472    939259.09    939266.32   -405.38124 
  422000    0.1003018    7.1639073    939003.43    939010.66   -402.64465 
  422500   0.10032852    7.1647219    938442.69    938449.92    -404.8902 
  423000   0.10032855    7.1638304    938521.73    938528.96   -404.97731 
  423500   0.10027047    7.1652767    938180.47     938187.7   -406.11175 
  424000   0.10020604    7.1650576     937569.3    937576.54   -405.97598 
  424500   0.10040846    7.1647167    938156.82    938164.06   -404.46043 
  425000  0.099881891    7.1655152    938156.79    938164.02   -406.48574 
  425500    0.1004381    7.1643784    937621.85    937629.08   -405.15909 
  426000   0.10023902    7.1652831    936504.07    936511.31   -405.77822 
  426500    0.1005641    7.1672809    935118.09    935125.32   -402.71795 
  427000   0.10010903    7.1657962    933194.43    933201.66   -406.52835 
  427500   0.10006201    7.1652853    931442.06    931449.29   -405.61115 
  428000   0.10031533     7.165252    930379.99    930387.22   -406.62174 
  428500   0.10054632    7.1674703    929036.54    929043.78   -405.28521 
  429000   0.10027198    7.1668274    928001.38    928008.62   -405.37329 
  429500  0.099926701     7.167617    927409.06    927416.29   -403.72615 
  430000   0.10047669    7.1684702    926680.58    926687.82   -405.11215 
  430500   0.10031797    7.1678297    924629.29    924636.53   -404.53761 
  431000   0.10046221     7.167513    922380.65    922387.89   -403.21679 
  431500   0.10038774    7.1664477    919909.09    919916.32   -404.84316 
  432000   0.10034236    7.1650305    918510.85    918518.08   -404.16477 
  432500   0.10017271    7.1668937     914957.7    914964.93   -405.76799 
  433000   0.10073694     7.164803    914957.62    914964.85   -405.68728 
  433500   0.10006907     7.163908    911410.61    911417.84   -403.06506 
  434000   0.10069344    7.1656369     908505.2    908512.43   -404.68219 
  434500   0.10046567    7.1622331    906142.57     906149.8   -403.55832 
  435000   0.10025498    7.1605484    904148.17     904155.4   -404.36141 
  435500   0.10024918    7.1585636    902739.64    902746.86   -404.73532 
  436000   0.10042824     7.160031    900844.57     900851.8   -403.93979 
  436500   0.10041631    7.1623277    898177.61    898184.84   -405.38254 
  437000   0.10039502    7.1626274    897804.65    897811.88   -403.80011 
  437500   0.10031572    7.1606829    897804.72    897811.94   -405.27728 
  438000   0.10054216    7.1619711    896782.36    896789.59   -405.76723 
  438500   0.10038435    7.1605997    896908.64    896915.86   -404.74352 
  439000   0.10031046    7.1585979    896147.52    896154.74   -403.71627 
  439500   0.10055793    7.1595024    895151.93    895159.15   -406.60865 
  440000   0.10028813    7.1587257    896147.59    896154.82   -400.98189 
  440500   0.10039941    7.1586755    896003.19    896010.42   -403.70521 
  441000   0.10041589    7.1604081    896003.12    896010.35   -405.08227 
  441500     0.100174    7.1597527    900301.58    900308.81   -404.79584 
  442000   0.10014616    7.1594186    902470.88    902478.11   -403.15689 
  442500   0.10001369    7.1587272    903718.99    903726.21   -403.07704 
  443000   0.10054813    7.1606564    903719.07     903726.3   -403.76508 
  443500   0.10027094    7.1593682    905487.84    905495.07   -403.21925 
  444000  0.099964594    7.1588946    907540.61    907547.83   -405.88852 
  444500   0.10015864    7.1592459    909732.06    909739.28   -405.97793 
  445000   0.10052215    7.1586078    910420.58    910427.81   -404.59802 
  445500   0.10026233    7.1587059     910420.5    910427.72   -403.74816 
  446000   0.10044556    7.1598207    912528.65    912535.87    -404.2534 
  446500   0.10035813    7.1589702    914741.89    914749.11   -406.81763 
  447000   0.10043359    7.1592143    916436.98     916444.2   -402.63621 
  447500    0.1001232    7.1588884    918254.36    918261.58   -405.60963 
  448000   0.10008035    7.1576398    918254.42    918261.65   -403.52161 
  448500   0.10019789    7.1577962    921710.83    921718.05   -403.82352 
  449000   0.10024088     7.156586    923101.17    923108.39   -404.54013 
  449500   0.10032336      7.15665    923101.11    923108.33   -405.32997 
  450000   0.10022077    7.1563241    928245.39    928252.61   -403.96515 
  450500   0.10027852    7.1554477    928245.33    928252.56   -405.42197 
  451000   0.10016923    7.1537627    930249.77    930256.99   -405.29592 
  451500   0.10047782    7.1553005    932531.97    932539.19   -403.87163 
  452000   0.10044398    7.1552473    933472.13    933479.35   -404.58174 
  452500   0.10028288    7.1551179    934383.81    934391.03   -404.87657 
  453000   0.10012529     7.153671    934121.11    934128.33   -403.59551 
  453500   0.10018629    7.1527319    933877.78       933885   -403.73835 
  454000   0.10012193    7.1527682    934524.78       934532   -405.71312 
  454500    0.1004182    7.1539852    934039.53    934046.75   -403.11088 
  455000   0.10024359    7.1539527    933215.95    933223.17   -405.37177 
  455500    0.1003377    7.1548618     931770.5    931777.72   -402.26165 
  456000   0.10016752    7.1538213    931770.49    931777.71   -403.68904 
  456500   0.10043229    7.1534877    930598.18     930605.4   -404.43667 
  457000   0.10038878    7.1542136    929662.41    929669.63   -403.78167 
  457500   0.10024533    7.1554299    927922.05    927929.27   -405.53469 
  458000   0.10029742    7.1541517    925941.41    925948.63   -404.68081 
  458500   0.10047842    7.1527308    923196.11    923203.33   -403.36266 
  459000   0.10047322    7.1519473    922219.77    922226.99   -406.04991 
  459500  0.099949334    7.1541896    920509.82    920517.04   -403.57044 
  460000   0.10009515    7.1539451    920509.77    920516.99   -403.80362 
  460500  0.099860834    7.1549421    918693.83    918701.05   -403.78912 
  461000   0.10031344     7.153178    917505.77    917512.99   -404.58144 
  461500   0.10036439    7.1550126    914870.53    914877.75   -402.34202 
  462000   0.10060478    7.1530781     912292.5    912299.72   -407.23938 
  462500   0.10062197    7.1544322    910026.38     910033.6   -404.25715 
  463000   0.10024382    7.1537826    910026.38     910033.6   -406.18909 
  463500   0.10021075    7.1546504    907388.04    907395.27   -404.13788 
  464000   0.10092136     7.155304    906088.01    906095.23    -400.9486 
  464500   0.10042684    7.1558995    903891.72    903898.95   -407.16805 
  465000   0.09990611    7.1563013    900791.42    900798.65   -402.64557 
  465500   0.10022979    7.1574559    900791.44    900798.67   -403.85749 
  466000   0.10012702    7.1576168    898777.74    898784.96    -403.8828 
  466500   0.10052837    7.1566988    897256.88     897264.1   -404.79147 
  467000   0.09987095    7.1574405    897256.91    897264.13   -403.43499 
  467500     0.100404    7.1568023    895956.98    895964.21   -404.11326 
  468000   0.10026492    7.1577788    894980.88     894988.1   -406.19552 
  468500   0.10002286    7.1576898    894765.28     894772.5   -406.40774 
  469000  0.099965731    7.1576398    894242.37    894249.59   -402.77838 
  469500   0.10026639    7.1605689    894979.08    894986.31   -405.77683 
  470000   0.10024017    7.1616733    895428.83    895436.06   -404.96725 
  470500  0.099862512    7.1619383    896248.77       896256   -401.72188 
  471000   0.10033205    7.1616624    898600.01    898607.24   -406.83935 
  471500   0.10051666    7.1618298    900053.71    900060.94   -404.16934 
  472000   0.10021127    7.1659046    902879.43    902886.66   -405.48859 
  472500   0.10033352     7.165294    903012.34    903019.57   -405.37744 
  473000  0.099944858    7.1667565    904649.47     904656.7   -405.05654 
  473500   0.10013757    7.1667194    906578.28    906585.51   -404.30605 
  474000   0.10069399     7.166261    907839.34    907846.57   -404.76922 
  474500  0.099764361    7.1678638     909953.8    909961.03    -404.2337 
  475000  0.099964183    7.1676819    909953.64    909960.88   -403.91907 
  475500   0.10028092     7.168068    913276.38    913283.62   -404.54649 
  476000   0.10055669    7.1681035    913836.05    913843.29   -405.49585 
  476500  0.099946605    7.1674735    916297.21    916304.45   -403.20191 
  477000    0.1003742    7.1697998    916297.27    916304.51   -403.76385 
  477500   0.10022476    7.1706615    919987.82    919995.06   -406.61513 
  478000   0.10027157    7.1712056    919987.69    919994.92   -404.91582 
  478500   0.10029965    7.1726564    920676.67    920683.91   -403.09769 
  479000   0.10056689    7.1729376    923213.28    923220.52   -407.92042 
[...]
 1872500   0.10027528    7.2324504    968625.83    968633.13   -405.41969 
 1873000  0.099893422    7.2332993     969625.9     969633.2   -404.65138 
 1873500   0.10061877    7.2338631    970761.79    970769.09   -402.98744 
 1874000   0.10027462    7.2305157    974077.16    974084.46   -406.41626 
 1874500   0.10044501    7.2318646    976203.52    976210.82   -402.30753 
 1875000   0.10040547    7.2312919    977446.75    977454.05   -406.06138 
 1875500   0.10025783    7.2303739    976700.26    976707.55   -405.37543 
 1876000   0.10018774     7.232094    976700.15    976707.44   -403.53338 
 1876500   0.10011533    7.2316775    976375.32    976382.62   -404.26903 
 1877000   0.10023672    7.2317237     976599.8     976607.1    -406.4253 
 1877500   0.10094889    7.2314883    975493.12    975500.42   -403.89429 
 1878000   0.10023247    7.2324267    974174.24    974181.54   -401.79013 
 1878500   0.10025068    7.2328208    972865.46    972872.76   -404.78363 
 1879000   0.10052822    7.2341171    972865.61    972872.91    -405.9555 
 1879500   0.10064648    7.2345034    970445.71    970453.01   -404.72403 
 1880000   0.10009476    7.2345501     968725.6     968732.9   -404.75302 
 1880500   0.10037225    7.2338865    966185.85    966193.15   -407.32796 
 1881000   0.09974681    7.2341494    963924.15    963931.45   -405.75833 
 1881500   0.10009399    7.2337839    961945.35    961952.65   -406.65621 
 1882000   0.10021634    7.2347187    956906.78    956914.08   -405.67725 
 1882500   0.10048766    7.2351799    952892.51    952899.81   -406.16511 
 1883000  0.099856767     7.234363    952892.53    952899.83   -406.09084 
 1883500   0.10032486    7.2347812    950207.25    950214.55   -402.80039 
 1884000  0.099743555    7.2361774    949065.24    949072.54   -401.13966 
 1884500   0.10027456    7.2340671    947738.72    947746.02   -404.41149 
 1885000   0.10029906    7.2329838    946459.64    946466.94   -404.80969 
 1885500   0.10025987    7.2334288     944358.5     944365.8    -406.3904 
 1886000   0.10007368     7.234075    942185.62    942192.92   -405.50783 
 1886500   0.10039232    7.2337661    940609.99     940617.3   -402.90154 
 1887000   0.10012514    7.2348953    938155.54    938162.84   -407.68629 
 1887500    0.1001078    7.2325203    936623.05    936630.35   -405.07872 
 1888000   0.10002661    7.2326863    935057.89    935065.19    -407.0584 
 1888500   0.10001865    7.2334457    933577.09    933584.39   -405.02354 
 1889000   0.10027173    7.2340844     930231.7       930239   -404.25538 
 1889500  0.099856551    7.2336676    928754.73    928762.03   -405.11504 
 1890000   0.10031979    7.2340169    927297.79    927305.09   -404.81357 
 1890500  0.099954279    7.2347194    927037.58    927044.89   -405.35841 
 1891000  0.099974992    7.2332362    924758.23    924765.53   -407.19197 
 1891500   0.10010295     7.233381    920751.62    920758.92   -403.94653 
 1892000   0.10000814     7.234225    920481.39    920488.69   -403.43153 
 1892500   0.10024808     7.234586    917479.43    917486.73   -408.29298 
 1893000   0.10024705    7.2351168    916552.04    916559.34   -406.60194 
 1893500   0.10027101    7.2328229    915881.71       915889   -404.22205 
 1894000  0.099909339    7.2345806    915881.75    915889.06   -403.88556 
 1894500   0.10038202    7.2327832    914100.97    914108.27   -403.54061 
 1895000   0.10022054    7.2338941    913915.14    913922.44     -405.328 
 1895500   0.10035894    7.2334273    913031.26    913038.56   -407.27344 
 1896000  0.099917497    7.2315655    915152.32    915159.62   -405.28983 
 1896500   0.10003141    7.2321153    916873.92    916881.22   -404.03647 
 1897000   0.10025354    7.2315517    916874.01    916881.31   -404.89897 
 1897500   0.10017627    7.2300588    917127.73    917135.03   -404.00264 
 1898000  0.099924618    7.2293574    916708.39    916715.69   -404.60562 
 1898500   0.10022027    7.2280656    919322.42    919329.72   -405.50144 
 1899000   0.10014261    7.2264419    920243.27    920250.56   -405.03818 
 1899500   0.10033022    7.2269617     920243.2    920250.49    -401.3374 
 1900000   0.10014333    7.2257586    923688.28    923695.57   -405.53942 
 1900500   0.10036023    7.2244631    924347.36    924354.65   -404.57633 
 1901000   0.10063546    7.2243671    926884.15    926891.44    -404.1127 
 1901500   0.10004799    7.2253386    927228.52    927235.81    -406.9766 
 1902000   0.10047495    7.2259332    929525.25    929532.54   -407.08995 
 1902500   0.10010017    7.2243025    930003.07    930010.36   -403.85698 
 1903000    0.1002479    7.2244277    931809.47    931816.76   -404.99698 
 1903500   0.10043362     7.225669    934274.09    934281.39   -400.91663 
 1904000   0.10008394    7.2252533    934274.22    934281.51   -406.26125 
 1904500   0.10030975     7.224943    935590.43    935597.72   -403.89182 
 1905000   0.10036179    7.2238413    937430.87    937438.16   -404.72496 
 1905500   0.10043898    7.2230935    939663.26    939670.55   -407.57848 
 1906000   0.10048916     7.222633    939331.71       939339   -405.48328 
 1906500   0.10008499    7.2234007    942433.98    942441.27   -405.60612 
 1907000  0.099916216    7.2217083    943685.58    943692.87   -406.24465 
 1907500   0.10054586    7.2214999    943685.48    943692.77   -405.49603 
 1908000   0.09994681    7.2210068    945766.38    945773.66   -403.38599 
 1908500  0.099825347    7.2213079     949309.6    949316.88   -404.31485 
 1909000  0.099847193    7.2221518    953481.99    953489.28    -407.1338 
 1909500   0.10020224      7.21972    953195.45    953202.73   -407.61652 
 1910000   0.10012942    7.2190462     955078.1    955085.39   -401.73439 
 1910500   0.10027096    7.2190021    955078.25    955085.53   -406.00359 
 1911000   0.10065917    7.2190936    955173.76    955181.05   -403.71516 
 1911500   0.10006024    7.2177484    955237.74    955245.02   -404.19653 
 1912000  0.099997831    7.2164274    955232.49    955239.77    -407.2589 
 1912500   0.10013065    7.2154671    955274.68    955281.96   -403.58547 
 1913000    0.1002625     7.214938    953859.68    953866.96   -401.75796 
 1913500   0.10018039    7.2165076    954891.77    954899.05   -404.30616 
 1914000   0.10045455    7.2149159    953940.47    953947.75   -405.86427 
 1914500   0.10005774    7.2127631    952873.53    952880.81   -404.31004 
 1915000    0.1002366    7.2132238    952152.63    952159.91   -401.51155 
 1915500   0.10059263    7.2128613    950810.41    950817.69   -402.56973 
 1916000   0.10018912    7.2124057    948823.41    948830.69   -405.63261 
 1916500   0.10030857    7.2116352    948823.43    948830.71   -405.15631 
 1917000   0.10015711    7.2097248    947546.25    947553.52   -403.92045 
 1917500    0.1003599    7.2068263    946417.11    946424.39   -403.78495 
 1918000   0.10034264    7.2068929    945943.77    945951.04   -404.66221 
 1918500   0.10034949    7.2042864    944777.49    944784.76   -404.85057 
 1919000   0.10020356    7.2042778    944844.78    944852.05   -406.09568 
 1919500   0.10000335    7.2044291    944844.88    944852.15   -405.44545 
 1920000   0.10038441      7.20594    944411.77    944419.05   -402.82039 
 1920500   0.10033398    7.2060638    942977.48    942984.75   -403.83287 
 1921000   0.10010358    7.2058876    941163.74    941171.01    -403.8756 
 1921500   0.10015992    7.2037154    940109.81    940117.08   -402.77073 
 1922000  0.099910702    7.2026874    940227.95    940235.22   -404.31877 
 1922500   0.10046552    7.2018199     940227.9    940235.17   -406.12217 
 1923000   0.10043077    7.2000958    939252.14    939259.41   -405.78477 
 1923500   0.10053915    7.1990965    938748.48    938755.75   -406.12712 
 1924000   0.10007857    7.1991713     938507.9    938515.16   -406.79248 
 1924500   0.10040543    7.2000672    938425.61    938432.88   -403.89163 
 1925000   0.10029316     7.198521    938667.34    938674.61    -403.5888 
 1925500   0.10050936    7.1995671    937833.04    937840.31   -403.54636 
 1926000   0.10033489    7.2000703       937242    937249.27   -402.65656 
 1926500   0.10020677    7.2004564    937242.03    937249.29   -404.28101 
 1927000   0.10043537    7.2013704    937041.61    937048.87   -405.74941 
 1927500   0.10044747    7.2012519    936828.05    936835.32   -404.47688 
 1928000  0.099879926    7.2013919     935383.5    935390.77   -406.62961 
 1928500   0.10023138    7.2010685    935064.97    935072.24   -405.20172 
 1929000   0.10024961    7.2031086    935924.46    935931.73    -404.8628 
 1929500   0.10030653    7.2026029    935924.46    935931.73   -404.59955 
 1930000   0.10006281    7.2015179    934789.53    934796.79   -403.55091 
 1930500   0.10018057    7.2015306    935324.68    935331.95   -406.17315 
 1931000   0.10026577    7.2003722    937754.11    937761.38   -402.86635 
 1931500   0.10008724    7.1989909    938863.68    938870.95   -406.83331 
 1932000   0.10016389    7.2003292    939353.02    939360.29   -405.81608 
 1932500   0.10031171    7.2003475    939249.84    939257.11     -407.051 
 1933000   0.10037522    7.2001371    939528.39    939535.65   -404.89764 
 1933500   0.10019893    7.1978202    940172.76    940180.02    -404.8453 
 1934000   0.10007522    7.1973844    940164.65    940171.92    -404.7781 
 1934500    0.1002816    7.1959256    940097.66    940104.93   -404.86658 
 1935000  0.099980437    7.1964578     940700.8    940708.07   -407.82653 
 1935500   0.10004509    7.1945925    940441.69    940448.95   -406.69721 
 1936000   0.10017137    7.1933402    940441.62    940448.88   -406.04095 
 1936500   0.10034885    7.1944396    940701.42    940708.68   -405.79285 
 1937000    0.1004571    7.1939106    940088.27    940095.53   -407.19514 
 1937500   0.10001697    7.1930665    940239.32    940246.58   -404.27282 
 1938000  0.099859722     7.191845    939608.92    939616.18   -408.76227 
 1938500   0.10101264    7.1922861    940285.08    940292.34   -405.77273 
 1939000   0.10015962    7.1909934    940527.56    940534.82   -407.05039 
 1939500   0.10024018    7.1903592    940527.43    940534.69   -404.22063 
 1940000   0.10012217    7.1898582    939095.37    939102.63   -407.58612 
 1940500   0.10032447    7.1899945    937268.05     937275.3   -407.68023 
 1941000   0.10075063    7.1895848    936462.72    936469.97   -407.28963 
 1941500   0.10002959    7.1892563     936895.7    936902.96   -402.92001 
 1942000   0.10053579    7.1903696    936323.34     936330.6   -404.69247 
 1942500   0.10028927    7.1920429    934967.18    934974.44   -403.65278 
 1943000   0.10067228    7.1903516    936022.97    936030.22   -406.73654 
 1943500   0.10054277    7.1922798    935915.41    935922.67   -403.38911 
 1944000   0.10039154    7.1904553    936737.83    936745.08   -404.82232 
 1944500    0.1002966    7.1885935    938001.95     938009.2   -405.71854 
 1945000   0.10053703     7.187888    938002.01    938009.26   -404.73298 
 1945500   0.10032479    7.1864955    938495.15    938502.41   -405.62457 
 1946000     0.100903    7.1867323     939146.8    939154.05   -403.66938 
 1946500   0.10019258    7.1857186    938923.37    938930.62   -406.45907 
 1947000   0.10084186    7.1864863    939158.69    939165.94   -402.26709 
 1947500   0.10056523      7.18651    941406.92    941414.17   -401.88813 
 1948000   0.10034083    7.1863196    941406.95     941414.2   -403.69385 
 1948500   0.10007458    7.1872345    941588.74    941595.99   -403.98489 
 1949000   0.10023685    7.1865786    941881.98    941889.23   -404.72908 
 1949500   0.10026677    7.1845897    942666.13    942673.38   -406.26754 
 1950000   0.10028782    7.1850394    946747.81    946755.06   -406.15481 
 1950500   0.10019846    7.1853956    946893.34    946900.59   -403.57965 
 1951000    0.1002902    7.1859166    949479.47    949486.73   -402.17926 
 1951500   0.10067321    7.1859898    951134.15     951141.4   -407.31107 
 1952000   0.10048131    7.1868962    952311.12    952318.38   -406.45507 
 1952500   0.10057902    7.1870825    952311.08    952318.33   -403.69342 
 1953000   0.10027147     7.187088    954934.65     954941.9   -406.03167 
 1953500    0.1001675    7.1879212    956642.27    956649.52   -404.56642 
 1954000   0.10007077    7.1884223    959205.38    959212.64   -404.34417 
 1954500  0.099931481    7.1874716    959102.62    959109.87   -402.33672 
 1955000   0.10034139    7.1855206    960578.56    960585.81   -404.38708 
 1955500   0.10027062    7.1865437    962493.44    962500.69   -405.45389 
 1956000   0.10029137    7.1867886    965409.82    965417.07   -402.93867 
 1956500   0.10026622    7.1864491     965788.1    965795.35   -405.03434 
 1957000  0.099806926    7.1881159    965788.01    965795.26   -406.74801 
 1957500  0.099743626    7.1873959    968342.07    968349.33   -404.10721 
 1958000   0.10000628    7.1889773    971117.62    971124.87   -405.58792 
 1958500   0.09983204    7.1887983    973666.28    973673.54   -404.23893 
 1959000  0.099943933    7.1903263    976800.85     976808.1   -406.64995 
 1959500  0.099793282     7.189681    976800.75    976808.01   -405.00039 
 1960000    0.1001785    7.1895151    976529.84    976537.09   -404.33645 
 1960500   0.10038279    7.1890124     978707.8    978715.06   -404.34205 
 1961000  0.099970584    7.1907297    979614.67    979621.93   -403.95622 
 1961500   0.10018581    7.1906533    981225.95    981233.21   -407.90731 
 1962000  0.099946933    7.1895046    982413.59    982420.85   -403.30072 
 1962500   0.10001414    7.1915785     982413.4    982420.65   -406.60425 
 1963000   0.10045014    7.1936837    982901.91    982909.17   -405.00943 
 1963500  0.099896566    7.1944787    983037.68    983044.95    -403.6857 
 1964000    0.1005849    7.1957846    983800.45    983807.71   -407.79664 
 1964500    0.1004013     7.195971    984005.41    984012.68   -404.76747 
 1965000      0.10022    7.1974119    984106.18    984113.44   -407.26344 
 1965500   0.10052261    7.1979141    984106.16    984113.42   -406.59468 
 1966000   0.10026752    7.1989703    983652.15    983659.41   -404.20475 
 1966500  0.099956643    7.1998939    982799.35    982806.62   -404.35707 
 1967000   0.10028675    7.1996247    980783.88    980791.15   -405.25765 
 1967500   0.10030559    7.2002914    980369.87    980377.13   -405.07646 
 1968000   0.10017885    7.2015542    979338.33     979345.6   -405.91894 
 1968500   0.10009124    7.2017083    978155.38    978162.65   -407.33391 
 1969000   0.10039437    7.2026854    975875.93     975883.2    -406.7173 
 1969500   0.10023412    7.2037591    975229.13     975236.4   -407.17095 
 1970000    0.1006999    7.2045252     971862.1    971869.37   -404.40551 
 1970500   0.10048755     7.205832    970346.75    970354.02   -404.84415 
 1971000   0.10034543    7.2053212    970346.73       970354   -404.02555 
 1971500   0.10031161    7.2069754    968333.25    968340.53   -404.04178 
 1972000   0.10037869    7.2066571    966464.03     966471.3   -404.02317 
 1972500   0.10050802    7.2077025    965316.94    965324.22   -406.35712 
 1973000   0.10017722    7.2097161    962779.18    962786.46   -404.06593 
 1973500   0.10052344    7.2115075    960579.04    960586.31   -404.92998 
 1974000   0.10035193    7.2126947     957597.5    957604.78   -404.26817 
 1974500    0.1001699    7.2125979    957597.46    957604.74   -406.05034 
 1975000   0.10009584    7.2143984    956314.48    956321.76   -405.29167 
 1975500   0.10090483    7.2145789    952821.87    952829.15   -406.46381 
 1976000   0.10035091    7.2165002    951557.48    951564.76   -405.80595 
 1976500   0.10055239     7.217059    948304.98    948312.27   -403.36402 
 1977000   0.10044829    7.2171062    946490.16    946497.45   -404.80921 
 1977500   0.10045614    7.2184727    946490.12    946497.41   -405.99351 
 1978000   0.10006856      7.22126    944095.85    944103.14    -403.4219 
 1978500   0.10060753    7.2213229    944095.82    944103.11   -404.37794 
 1979000   0.10061961    7.2212509    943405.53    943412.82   -403.57486 
 1979500    0.1005585    7.2232373     942445.2    942452.49   -404.72474 
 1980000  0.099694779    7.2230738    939620.75    939628.04   -405.62643 
 1980500   0.10031732    7.2242336    939620.65    939627.94   -404.21363 
 1981000   0.10023689    7.2260537    938318.64    938325.93   -405.51457 
 1981500   0.09998297    7.2241559    936317.04    936324.33   -404.48251 
 1982000   0.10047412    7.2269569    933771.25    933778.54    -407.0585 
 1982500   0.10028012    7.2276377    931614.71       931622   -405.66673 
 1983000   0.10007195    7.2287325    928933.16    928940.46   -404.03164 
 1983500   0.10047278    7.2293778    928933.09    928940.38   -404.78107 
 1984000   0.10105661    7.2289874     927311.9    927319.19   -407.56027 
 1984500  0.099789843    7.2315989       925112     925119.3   -403.93327 
 1985000   0.10011316    7.2298979    922560.46    922567.76   -405.23948 
 1985500   0.10046603    7.2298835    921711.19    921718.48   -406.43648 
 1986000   0.10021575    7.2288348     920197.5    920204.79     -404.274 
 1986500   0.10040758    7.2308259    920261.28    920268.58   -403.42464 
 1987000   0.10036061    7.2326711    920312.18    920319.48    -402.4042 
 1987500   0.10034173     7.232497    919115.06    919122.36   -406.11821 
 1988000   0.10025421     7.232839    920242.51    920249.81   -405.83576 
 1988500   0.10062308    7.2352732    919475.68    919482.99   -404.37675 
 1989000   0.10016209    7.2350979    918193.17    918200.47   -405.35746 
 1989500   0.10018947    7.2362113    918193.16    918200.46   -403.85879 
 1990000   0.10065434    7.2354401    917021.27    917028.57   -405.76441 
 1990500   0.10047131    7.2342303     917538.9     917546.2   -404.95697 
 1991000   0.10027758    7.2352886    918543.18    918550.48   -405.86879 
 1991500   0.10013626    7.2361969     920051.2    920058.51   -404.91428 
 1992000  0.099872695     7.235021    920875.06    920882.37   -403.80401 
 1992500   0.10013068    7.2355044    922522.27    922529.57   -405.28842 
 1993000   0.10015252    7.2346876    923670.39    923677.69   -403.74796 
 1993500   0.10026202      7.23537    925511.93    925519.23   -405.37234 
 1994000   0.10026695    7.2364273    927838.37    927845.68   -406.68576 
 1994500   0.09992437    7.2368504    928787.28    928794.59   -403.37731 
 1995000   0.10010217    7.2355939    930023.38    930030.68   -406.22732 
 1995500   0.10044859    7.2358179    931291.25    931298.55   -406.76959 
 1996000   0.10021008    7.2360507    931869.19     931876.5   -404.41292 
 1996500   0.10028936    7.2365203    931869.22    931876.53   -406.12747 
 1997000   0.10025482    7.2368707    931923.44    931930.74   -406.86804 
 1997500    0.1000374    7.2362065    932406.17    932413.48   -406.68025 
 1998000   0.10013281    7.2357227    932166.92    932174.22   -403.49289 
 1998500   0.09993255    7.2357732     932603.9     932611.2   -404.09027 
 1999000   0.10031819    7.2346865    932603.94    932611.24   -406.56474 
 1999500   0.10015423    7.2352599    934396.35    934403.65   -404.62345 
 2000000   0.10019622    7.2362555    935951.58    935958.89   -405.22169 
 2000010   0.10031708    7.2364264    935951.57    935958.87   -405.59207 
Loop time of 154300 on 640 procs for 2000010 steps with 264470 atoms

Pair  time (%) = 50973.9 (33.0357)
Bond  time (%) = 44024.1 (28.5316)
Neigh time (%) = 312.169 (0.202314)
Comm  time (%) = 11211.2 (7.26585)
Outpt time (%) = 274.852 (0.178129)
Other time (%) = 47503.4 (30.7865)

Nlocal:    413.234 ave 1217 max 236 min
Histogram: 151 305 139 10 5 3 7 8 9 3
Nghost:    3846.32 ave 7651 max 2265 min
Histogram: 136 136 24 192 82 15 20 15 15 5
Neighs:    64910.7 ave 110681 max 25997 min
Histogram: 20 66 77 104 89 98 86 65 28 7

Total # of neighbors = 41542850
Ave neighs/atom = 157.08
Ave special neighs/atom = 10.9988
Neighbor list builds = 6604
Dangerous builds = 0
