LAMMPS (9 Jan 2009)
# 23 solvent components diffusion using DPD
include         seeds.txt
variable  seed1  equal 5939
variable  seed2  equal 84796
variable  seed3  equal 13213
variable  seed4  equal 7666
variable  seed5  equal 11665
variable        nthermo equal 500
dimension       3
boundary	p f p
units           lj
variable        force equal 0.5
atom_style      cc/full
neighbor        1.0 bin
neigh_modify    every 1 check yes exclude type 1 4 exclude type 3 4 exclude type 4 4 exclude type 1 5 exclude type 2 5 exclude type 3 5 exclude type 4 5 exclude type 5 5

read_restart	data/restart.rheo.900000
  orthogonal box = (-5 0 -10) to (105 20 10)
  32 by 4 by 5 processor grid
  250470 atoms
  212292 bonds
  141528 angles
  212292 dihedrals
  7 = max # of 1-2 neighbors
  35 = max # of 1-3 neighbors
  210 = max # of 1-4 neighbors
  420 = max # of special neighbors

group           cells union rbc platelet bank
72072 atoms in group cells

bond_style      cell
bond_coeff      1 rbc 0.1 1.8 100.0 2.0 5.47 16.41 0.0
bond_coeff      2 plat 0.1 1.8 10000.0 2.0 0.0 0.0 0.0
bond_coeff      3 bond 2.222e4 128.0e-3 0.0 0.0 0.0 0.3 0 #dummy bonds defined here for future use
bond_coeff      4 bond 2.222e4 128.0e-3 0.0 0.0 0.0 0.3 0
bond_coeff      5 bond 2.222e4 128.0e-3 0.0 0.0 0.0 0.0 0
bond_coeff      6 bond 2.222e4 128.0e-3 0.0 0.0 0.0 0.0 0

angle_style     area/volume
angle_coeff     1 4900.0 132.8686  5000.0 127.4571 100.0 0.
angle_coeff     2 5000.0 31.160    5000.0 12.006   100.0 0.

dihedral_style  bend
dihedral_coeff  1 6.025 0.0 0.0
dihedral_coeff  2 100.0 0.0 0.0

pair_style      hybrid/overlay dpd 1.0 ${seed1} dpd/misc 1.0 ${seed2} cc 1.0 ${seed3} 0 105
pair_style      hybrid/overlay dpd 1.0 5939 dpd/misc 1.0 ${seed2} cc 1.0 ${seed3} 0 105
pair_style      hybrid/overlay dpd 1.0 5939 dpd/misc 1.0 84796 cc 1.0 ${seed3} 0 105
pair_style      hybrid/overlay dpd 1.0 5939 dpd/misc 1.0 84796 cc 1.0 13213 0 105
pair_coeff      1 1 dpd 5.0 20.0 2.0 0.2 1.58
pair_coeff      1 2 dpd 0.0 10.0 1.414 0.2 1.5
pair_coeff      1 3 dpd 0.0 45.0 3.0 0.2 1.5
pair_coeff      1 4 dpd 0.0 0.0 0.0 0.25 1.0
pair_coeff      1 5 dpd 0.0 0.0 0.0 0.25 1.0
pair_coeff      2 2 dpd 2.5 10.0 1.414 0.2 1.0
pair_coeff      2 3 dpd 2.5 10.0 1.414 0.2 1.0
pair_coeff      2 4 dpd 0.0 0.0 0.0 0.25 1.0
pair_coeff      2 5 dpd 0.0 0.0 0.0 0.25 1.0
pair_coeff      3 3 dpd 10.0 10.0 1.414 0.2 1.0
pair_coeff      3 4 dpd 0.0 0.0 0.0 0.25 1.0
pair_coeff      3 5 dpd 0.0 0.0 0.0 0.25 1.0
pair_coeff      4 4 dpd 0.0 0.0 0.0 0.25 1.0
pair_coeff      4 5 dpd 0.0 0.0 0.0 0.25 1.0
pair_coeff      5 5 dpd 0.0 0.0 0.0 0.25 1.0
pair_coeff      2 2 dpd/misc 2 5.0 2.0 1.0 1.0
pair_coeff      2 3 dpd/misc 2 5.0 2.0 1.0 1.0
pair_coeff      3 3 dpd/misc 2 5.0 2.0 0.95 1.0
#pair_coeff      1 1 dpd/misc 4 0.0 20.0 2.0 0.2 1.58 11
include         coeff.in
#             i j a     ga     si    s1    rc   rcc   Ri  Di    s2
pair_coeff    1 1 cc  0.00  0.00  0.00  0.40  1.58  1.00  0.00	1.730E-02	2.00	0.00	1.501E-02	2.00	0.00	8.867E-03	2.00	0.00	5.995E-03	2.00	0.00	8.508E-03	2.00	0.00	1.501E-02	2.00	0.00	2.125E-02	2.00	0.00	1.501E-02	2.00	0.00	1.802E-02	2.00	0.00	1.350E-02	2.00	0.00	3.662E-03	2.00	0.00	5.924E-03	2.00	0.00	1.274E-02	2.00	0.00	9.047E-03	2.00	0.00	1.479E-02	2.00	0.00	1.741E-02	2.00	0.00	1.454E-02	2.00	0.00	1.432E-02	2.00	0.00	1.569E-02	2.00	0.00	4.000E-04	2.00	0.00	8.710E-02	2.00	0.00	0.000E+00 2.00  0.00  0.000E+00 2.00
pair_coeff    1 2 cc  0.00  0.00  0.00  0.40  1.58  1.00  0.00	1.730E-02	2.00	0.00	1.501E-02	2.00	0.00	8.867E-03	2.00	0.00	5.995E-03	2.00	0.00	8.508E-03	2.00	0.00	1.501E-02	2.00	0.00	2.125E-02	2.00	0.00	1.501E-02	2.00	0.00	1.802E-02	2.00	0.00	1.350E-02	2.00	0.00	3.662E-03	2.00	0.00	5.924E-03	2.00	0.00	1.274E-02	2.00	0.00	9.047E-03	2.00	0.00	1.479E-02	2.00	0.00	1.741E-02	2.00	0.00	1.454E-02	2.00	0.00	1.432E-02	2.00	0.00	1.569E-02	2.00	0.00	4.000E-04	2.00	0.00	8.710E-02	2.00	0.00	0.000E+00 2.00  0.00  0.000E+00 2.00

#time integrater
fix		1  move nve
fix		2  chemical cc/verlet x 0.0 initial_cc.dat
#add reaction
fix		31 solvent cc/reaction 2 33 25 65 0 react_rates.dat
fix		32 platelet cc/reaction 3 33 25 65 0 react_rates.dat
#add body force to drive the flow + bounce-back + no-slip
fix     40 solvent solid/bound 0 bc_channel.dat
fix     41 rbc solid/bound 0 bc_channel_rbc.dat
fix     42 platelet solid/bound 0 bc_channel_plat.dat
fix		43 solvent solid/bound 1 bc_channel_cc.dat 18
fix     7  platelet com/gyrat 100 1 1 0 data/traj/plat 1 3 SE
fix		8  move addforce 0 ${force} 0.0 0.0
fix		8  move addforce 0 0.5 0.0 0.0
variable c_cut    equal 0.6
variable b_cut    equal 0.6
variable ks       equal 9.1e3
variable r0       equal 0.128
variable kf0      equal 1.18e-3
variable sigf     equal 1.8e-3
variable kr0      equal 5.0e-7
variable sigr     equal 1.62e-3
variable T        equal 0.1

fix     91 adh bond/create/AD 2 4 ${c_cut} 3 ${ks} ${r0} ${kf0} ${sigf} ${T} 10 5 1 ${seed4} catch
fix     91 adh bond/create/AD 2 4 0.6 3 ${ks} ${r0} ${kf0} ${sigf} ${T} 10 5 1 ${seed4} catch
fix     91 adh bond/create/AD 2 4 0.6 3 9100 ${r0} ${kf0} ${sigf} ${T} 10 5 1 ${seed4} catch
fix     91 adh bond/create/AD 2 4 0.6 3 9100 0.128 ${kf0} ${sigf} ${T} 10 5 1 ${seed4} catch
fix     91 adh bond/create/AD 2 4 0.6 3 9100 0.128 0.00118 ${sigf} ${T} 10 5 1 ${seed4} catch
fix     91 adh bond/create/AD 2 4 0.6 3 9100 0.128 0.00118 0.0018 ${T} 10 5 1 ${seed4} catch
fix     91 adh bond/create/AD 2 4 0.6 3 9100 0.128 0.00118 0.0018 0.1 10 5 1 ${seed4} catch
fix     91 adh bond/create/AD 2 4 0.6 3 9100 0.128 0.00118 0.0018 0.1 10 5 1 7666 catch
fix     92 adh bond/break/AD ${b_cut} 3 ${ks} ${r0} ${kr0} ${sigr} ${T} ${seed5} slip
fix     92 adh bond/break/AD 0.6 3 ${ks} ${r0} ${kr0} ${sigr} ${T} ${seed5} slip
fix     92 adh bond/break/AD 0.6 3 9100 ${r0} ${kr0} ${sigr} ${T} ${seed5} slip
fix     92 adh bond/break/AD 0.6 3 9100 0.128 ${kr0} ${sigr} ${T} ${seed5} slip
fix     92 adh bond/break/AD 0.6 3 9100 0.128 5e-07 ${sigr} ${T} ${seed5} slip
fix     92 adh bond/break/AD 0.6 3 9100 0.128 5e-07 0.00162 ${T} ${seed5} slip
fix     92 adh bond/break/AD 0.6 3 9100 0.128 5e-07 0.00162 0.1 ${seed5} slip
fix     92 adh bond/break/AD 0.6 3 9100 0.128 5e-07 0.00162 0.1 11665 slip
#fix             93 platelet bond/create/AD 2 2 0.5 4 2.222e5 0.0 1.18 1.31e-3 0.1 10 1 1 1354 catch
#fix             94 platelet bond/break/AD 0.3 4 2.222e4 0.0 5.0e-7 1.62e-3 0.1 3098 slip
fix		101 platelet molecule
fix		102 cells influx 0.41552 1000 3 2 5 1.0 bank 7 y -5 6.5 0 20 -10 10

#statistics
fix             11 solvent stat/velT box 100 40 10 0 1 50000 data/velT  9   #9  for Thrombin
fix             12 solvent stat/velT box 100 40 10 0 1 50000 data/velT 10   #10 for Prothrombin
fix             13 solvent stat/velT box 100 40 10 0 1 50000 data/velT 11   #11 for Fibrin
fix             14 solvent stat/velT box 100 40 10 0 1 50000 data/velT 12   #12 for Fibrinogen
fix             15 solvent stat/velT box 100 40 10 0 1 50000 data/velT 15   #15 for Anti Thrombin-III
fix             16 solvent stat/velT box 100 40 10 0 1 50000 data/velT 21   #21 for ADP
fix             17 platelet stat/dens box 100 40 10 0 1 50000 data/den_plat
fix             18 move stat/all box 30 40 20 0 1 2000 30 60 0 20 -10 10
fix             20 solvent stat/velT box 100 40 10 0 1 50000 data/velT 1    #1 for IXa
fix             21 solvent stat/velT box 100 40 10 0 1 50000 data/velT 2    #2 for IX
fix             22 solvent stat/velT box 100 40 10 0 1 50000 data/velT 7    #7 for Xa
fix             23 solvent stat/velT box 100 40 10 0 1 50000 data/velT 8    #8 for X

reset_timestep	0
timestep        0.001

compute         mythermo solvent temp/partial 0 1 1
thermo_modify   temp mythermo flush yes lost warn
thermo          ${nthermo}
thermo          500

dump            1 rbc atom 20000 data/dump.rbc.lammpstrj
dump            2 adh atom 1000 data/dump.plat.lammpstrj
dump            3 rbc custom 20000 data/rbc.lammpstrj id mol x y z
dump            4 platelet custom 1000 data/plat.lammpstrj id mol x y z

restart		50000 data/restart
run 		2000010
Memory usage per processor = 37.6409 Mbytes
Step Temp E_pair E_mol TotEng Press 
       0   0.10039034    7.6004077      1448454    1448461.7   -857.26468 
     500  0.099933028    7.5918064    1448458.3      1448466   -860.34364 
    1000   0.10077823    7.5986958    1447852.9    1447860.6   -858.60067 
    1500   0.10024152    7.5986971    1448059.6    1448067.3   -860.87044 
    2000   0.10038019    7.6013881    1448598.2    1448605.9   -860.48457 
    2500   0.10015823    7.6028006    1450284.7    1450292.4   -860.43871 
    3000    0.1004982    7.6028086    1450363.7    1450371.4    -859.2651 
    3500   0.10018899    7.6035284    1448266.9    1448274.6   -860.56335 
    4000    0.1001086    7.6051039    1448267.3    1448274.9   -857.59599 
    4500   0.10065095    7.6048201    1448014.6    1448022.3   -859.86727 
    5000   0.10068213      7.60485    1446704.1    1446711.8   -858.63673 
    5500   0.10067181    7.6051413    1448408.1    1448415.8   -858.21577 
    6000   0.10043264    7.6066015    1448137.2    1448144.8   -857.33163 
    6500   0.10032748    7.6065181    1448447.6    1448455.3   -860.18077 
    7000   0.10003989    7.6081067    1448610.1    1448617.8   -859.49211 
    7500   0.10061612    7.6092152    1448610.5    1448618.2    -861.4198 
    8000   0.10019226    7.6085252    1446414.1    1446421.8   -858.64514 
    8500   0.10032922    7.6077984    1444106.7    1444114.3   -858.46775 
    9000   0.10071618    7.6062645    1445471.1    1445478.7   -858.31731 
    9500   0.10036159    7.6072691    1446590.9    1446598.6   -860.30115 
   10000   0.10005355    7.6055147    1447792.1    1447799.8   -862.30327 
   10500    0.1004686    7.6072796    1447792.3      1447800    -860.4794 
   11000   0.10028733    7.6070797    1451689.5    1451697.1   -857.67684 
   11500  0.099833236    7.6075934    1453807.8    1453815.5   -858.14316 
   12000   0.10054976    7.6070539    1457152.2    1457159.8    -859.3724 
   12500   0.10059734    7.6075628    1457480.6    1457488.3   -860.72538 
   13000   0.10032999    7.6072199    1462315.6    1462323.3   -857.70433 
   13500   0.10003536    7.6078145    1464387.5    1464395.2   -859.07641 
   14000   0.10011289    7.6092285    1464387.6    1464395.3   -859.67779 
   14500    0.1001491     7.608607    1467535.8    1467543.5   -859.17674 
   15000   0.10023677    7.6099321    1471242.1    1471249.7   -860.55154 
   15500   0.10034143    7.6099051    1474765.6    1474773.2   -857.25852 
   16000   0.10051884    7.6121879    1477742.1    1477749.8   -860.44269 
   16500   0.10034996    7.6112071      1480962    1480969.7   -860.50232 
   17000   0.10020441    7.6115688      1480962    1480969.7   -861.25843 
   17500   0.10042066    7.6122242    1482502.9    1482510.6   -859.42433 
   18000   0.10019314    7.6128684    1482387.3      1482395   -857.84332 
   18500   0.10073005     7.613445    1484619.4    1484627.1   -858.39912 
   19000   0.10042827    7.6127009    1485433.8    1485441.4    -859.2707 
   19500   0.10016843    7.6139944    1486440.1    1486447.8    -863.0371 
   20000     0.100552    7.6135595    1486472.8    1486480.5   -860.49026 
   20500   0.10007831    7.6132634    1486472.9    1486480.6   -860.18351 
   21000   0.10033314    7.6138628      1484931    1484938.7   -858.23741 
   21500    0.1001063    7.6143956    1486363.9    1486371.6   -859.22661 
   22000   0.10029667    7.6147367    1484997.1    1485004.8   -860.10434 
   22500   0.10041608    7.6161136    1486087.6    1486095.3    -860.1901 
   23000   0.10007169    7.6147603    1485876.8    1485884.5   -858.87375 
   23500   0.10036326    7.6142818    1485876.8    1485884.5   -859.58814 
   24000   0.10069313    7.6149642    1486223.1    1486230.8   -858.77792 
   24500   0.10000687    7.6149364    1485586.8    1485594.4   -859.67211 
   25000   0.10061584    7.6142377    1484518.4    1484526.1   -860.81863 
   25500   0.10019924     7.614917    1484688.6    1484696.3   -858.22458 
   26000   0.10070009    7.6141877    1483393.7    1483401.4   -861.95039 
   26500   0.10058476    7.6146171    1483393.8    1483401.5   -859.16965 
   27000   0.10038368    7.6149942    1483234.7    1483242.4   -859.36253 
   27500   0.10081482    7.6136831    1481721.1    1481728.8   -860.20558 
   28000   0.10040588    7.6118669    1481234.2    1481241.9   -859.39298 
   28500   0.10066359    7.6122295    1477448.9    1477456.6   -862.72316 
   29000    0.1000845    7.6131172    1474897.9    1474905.6   -860.27681 
   29500   0.10001405    7.6131504    1474898.1    1474905.8   -861.03613 
   30000  0.099997965    7.6142932    1473961.6    1473969.3   -861.32024 
   30500   0.09998227    7.6162687      1472279    1472286.6   -859.77924 
   31000   0.10022941    7.6153917    1469142.2    1469149.9   -861.32093 
   31500      0.10021    7.6159088    1468583.6    1468591.3   -858.39585 
   32000   0.10006289     7.616338    1466414.4      1466422   -861.94412 
   32500    0.1006859    7.6170592    1466414.5    1466422.2    -860.6602 
   33000    0.1005078    7.6159603    1463919.3      1463927   -861.65569 
   33500   0.10006026    7.6171078    1463532.6    1463540.3    -860.5181 
   34000   0.10057044    7.6175493    1462948.2    1462955.8   -858.40965 
   34500   0.10048324    7.6168714    1464105.7    1464113.4   -859.27742 
   35000   0.10072008    7.6183653    1464131.8    1464139.5   -857.47894 
   35500    0.1001044    7.6198567      1463686    1463693.6   -860.79997 
   36000  0.099992759    7.6200745    1463685.9    1463693.6   -862.39994 
   36500   0.10036439    7.6190941    1462226.9    1462234.6   -860.79729 
   37000   0.10006475    7.6201214    1461952.4    1461960.1    -860.3345 
   37500   0.10070281    7.6215167    1460059.3    1460066.9   -861.25666 
   38000    0.1002912    7.6215418    1458540.9    1458548.6   -859.33571 
   38500   0.10009703    7.6204688    1456795.1    1456802.8   -859.17274 
   39000   0.10047047    7.6213683      1456795    1456802.7    -859.8887 
   39500   0.10011699    7.6204852    1453892.8    1453900.5   -859.85997 
   40000   0.10046488     7.620476    1453310.9    1453318.6   -859.52834 
   40500  0.099886259    7.6215681    1450296.8    1450304.4   -860.60248 
   41000   0.09971119    7.6228329    1448176.4    1448184.1   -861.72633 
   41500   0.10053524    7.6228038    1445156.5    1445164.2   -859.35199 
   42000  0.099999656    7.6218997    1441504.5    1441512.2   -859.06401 
   42500   0.10049245    7.6222117    1441504.5    1441512.2   -860.37489 
   43000   0.10051244    7.6207515      1438163    1438170.7   -861.50724 
   43500   0.10023842    7.6213393    1433642.7    1433650.4   -860.96075 
   44000   0.10066514    7.6210579    1430411.2    1430418.9   -862.21766 
   44500   0.10049533    7.6207507    1430553.5    1430561.2   -860.88234 
   45000   0.10069159    7.6200361    1428239.4    1428247.1   -859.84947 
   45500   0.10025553    7.6214405    1428239.4    1428247.1   -860.33662 
   46000    0.1003748    7.6221522    1427356.6    1427364.3    -858.9311 
   46500   0.10094727    7.6232701    1426563.6    1426571.3   -859.37708 
   47000   0.10045749    7.6220097      1425528    1425535.7   -860.95985 
   47500   0.10000866    7.6229592    1425811.3      1425819   -856.38138 
   48000   0.10026198    7.6233632    1425427.3      1425435    -858.8687 
   48500   0.10059836    7.6227426    1425309.1    1425316.8   -860.31188 
   49000   0.10067366    7.6238632    1425309.1    1425316.8    -859.5468 
   49500   0.10064611    7.6246147    1427306.7    1427314.4   -862.01967 
   50000   0.10069681    7.6246928    1430882.1    1430889.8   -859.01758 
   50500  0.099779396    7.6247622    1430882.2    1430889.9    -861.5821 
   51000  0.099721238    7.6265232    1432804.6    1432812.3   -857.97978 
   51500   0.10033796    7.6259373    1437321.6    1437329.3   -857.06488 
   52000   0.10061868    7.6264786    1439747.6    1439755.3   -858.92323 
   52500   0.10024243    7.6279197    1443807.5    1443815.2   -859.65225 
   53000   0.10044946    7.6289424    1448177.6    1448185.3   -859.22653 
   53500   0.10053938    7.6280477    1448177.8    1448185.5   -864.23317 
   54000    0.1002264     7.627526    1451705.7    1451713.4   -860.68453 
   54500   0.10026896    7.6285695    1455960.4    1455968.1   -861.06194 
   55000   0.10057534    7.6299572      1457750    1457757.7   -860.53564 
   55500   0.10018059      7.62967    1462641.5    1462649.2   -860.76803 
   56000   0.10030169    7.6299904    1467032.7    1467040.4   -858.25863 
   56500   0.10042751    7.6316006    1467032.6    1467040.3   -856.28482 
   57000   0.10055974    7.6321812    1470625.4    1470633.1   -858.63711 
   57500   0.10060054    7.6324326    1472502.9    1472510.6   -862.19148 
   58000   0.10010386    7.6333737    1473635.3      1473643   -859.35353 
   58500   0.10018829     7.633642    1476534.8    1476542.5   -860.21947 
   59000  0.099854994    7.6326864    1479033.1    1479040.8   -860.97389 
   59500   0.10017494    7.6337712    1483497.6    1483505.3   -860.29718 
   60000   0.10005839    7.6331437    1483497.6    1483505.3   -861.11663 
   60500   0.10050395    7.6345081    1485201.1    1485208.8   -860.86648 
   61000   0.10030494    7.6344625    1488727.9    1488735.6   -860.58223 
   61500   0.10014969    7.6349863      1492454    1492461.7   -858.89177 
   62000   0.10050821    7.6350574    1494757.3      1494765    -862.0771 
   62500    0.1003602    7.6351575      1496729    1496736.7   -858.85964 
   63000   0.10025374    7.6366642    1496728.8    1496736.6   -859.07879 
   63500   0.10016067    7.6363962      1500303    1500310.7   -859.50162 
   64000   0.10044076    7.6366062    1501382.8    1501390.5   -858.36728 
   64500  0.099962672    7.6361273    1502628.1    1502635.8   -860.65022 
   65000   0.10010228    7.6355121    1502156.8    1502164.6   -859.49121 
   65500    0.1001863    7.6366974    1502524.9    1502532.6   -861.64421 
   66000    0.1003879    7.6355651    1501222.8    1501230.5   -859.56226 
   66500  0.099933723    7.6354372    1500546.1    1500553.8   -857.45456 
   67000   0.10062396    7.6356517      1500546    1500553.7   -861.30071 
   67500   0.10023298    7.6351229    1499006.1    1499013.8   -860.12083 
   68000   0.10050941    7.6339075    1498760.7    1498768.4   -859.92361 
   68500   0.10010339    7.6341661    1497049.3      1497057   -861.02765 
   69000   0.10027605     7.635877    1493583.7    1493591.5   -857.50057 
   69500   0.10008563    7.6343903    1494627.8    1494635.6   -858.53081 
   70000   0.10011012    7.6365179    1492709.1    1492716.8   -861.61483 
   70500   0.10041969    7.6360478    1491690.2    1491697.9   -860.65516 
   71000    0.1005549    7.6374887    1491525.8    1491533.5   -862.50251 
   71500    0.1005362    7.6365063    1488331.3      1488339   -858.27306 
   72000   0.10004122    7.6376994    1490019.8    1490027.5   -860.42268 
   72500   0.10036875    7.6400543    1490019.8    1490027.5    -859.9303 
   73000   0.10039728     7.639934    1488704.9    1488712.6   -860.54256 
   73500   0.10010462    7.6399737    1489042.3      1489050   -860.98703 
   74000   0.10068678    7.6395907    1487577.4    1487585.1   -861.27214 
   74500   0.10022725    7.6396335    1484541.8    1484549.5   -860.45266 
   75000   0.10029748    7.6405187    1481888.3      1481896   -861.61094 
   75500   0.10060499    7.6414057    1478188.3      1478196   -861.59472 
   76000   0.10020628    7.6398858    1478188.3      1478196   -856.57384 
   76500    0.1003048    7.6397084    1476739.1    1476746.8   -856.55152 
   77000    0.1008369    7.6402683    1475929.6    1475937.3   -859.50113 
   77500   0.10014157     7.642326    1475316.5    1475324.2   -858.50583 
   78000   0.10013478    7.6433363    1474654.2      1474662   -858.79888 
   78500   0.10036378    7.6431367    1476178.9    1476186.6   -858.23536 
   79000   0.10011551    7.6445843    1474912.7    1474920.4   -859.13585 
   79500   0.10041973    7.6439978    1475921.2    1475928.9   -860.61922 
   80000   0.10033684    7.6415397    1477468.7    1477476.4   -858.71393 
   80500   0.10049766    7.6420938      1478068    1478075.7   -858.19028 
   81000   0.10049055    7.6424451      1478068    1478075.7   -859.23822 
   81500   0.10016586    7.6424056    1478512.4    1478520.2   -863.20766 
   82000   0.10028334    7.6425631    1478795.3      1478803   -858.62728 
   82500   0.10030381    7.6430206    1480955.4    1480963.1   -859.08555 
   83000   0.10051817     7.642835    1480594.2      1480602   -862.94616 
   83500   0.10035737    7.6421802      1481087    1481094.7   -858.18683 
   84000   0.10044087    7.6432289    1482360.5    1482368.2    -859.4647 
   84500   0.10004038    7.6446648    1480712.8    1480720.5   -856.92989 
   85000   0.10043638    7.6443251    1480712.8    1480720.5   -859.15115 
   85500   0.10047551    7.6446709    1478195.2    1478202.9   -860.24658 
   86000  0.099921981    7.6435345    1478147.6    1478155.3   -861.45317 
   86500   0.10009663    7.6442491    1478925.2    1478932.9   -859.88545 
   87000   0.10022095    7.6447815    1477865.3      1477873   -859.96901 
   87500   0.10052547    7.6443018    1475297.4    1475305.1   -859.78261 
   88000   0.10022388    7.6454835    1475940.8    1475948.5   -859.21434 
   88500   0.10036842    7.6452118    1475940.8    1475948.5   -858.75865 
   89000  0.099840517    7.6458795    1474299.9    1474307.6   -862.02298 
   89500   0.10037057    7.6456851    1474989.6    1474997.3   -861.46084 
   90000   0.10019401    7.6454775    1478025.8    1478033.5   -860.37663 
   90500   0.10000321    7.6457968    1478604.2    1478611.9   -858.48275 
   91000  0.099936234    7.6470056    1481076.8    1481084.5   -858.91376 
   91500   0.10040216    7.6466289    1481076.9    1481084.6   -858.80097 
   92000   0.10037167    7.6458226    1484488.6    1484496.4   -858.65692 
   92500   0.10014679    7.6454824    1485148.8    1485156.6   -858.82054 
   93000   0.10032279    7.6467943    1487776.2    1487783.9   -857.91729 
   93500   0.10019133    7.6476046      1489567    1489574.7   -858.68593 
   94000   0.10014316    7.6475415      1493391    1493398.8   -858.37251 
   94500   0.10000417    7.6468479    1493078.7    1493086.4   -860.31461 
   95000   0.10025779    7.6474833    1493078.7    1493086.4   -860.76075 
   95500   0.10054545    7.6489293    1494463.3    1494471.1   -859.61269 
   96000    0.1002078    7.6479963    1494551.7    1494559.4   -858.71367 
   96500   0.10022453    7.6488817    1494263.6    1494271.3   -856.90815 
   97000   0.10035971    7.6484971    1491561.7    1491569.5   -860.06241 
   97500   0.10015069    7.6484009    1492748.8    1492756.5   -860.00849 
   98000   0.10023352    7.6480677    1492748.7    1492756.4   -858.27332 
   98500   0.10013013    7.6493704    1493175.6    1493183.4   -861.21516 
   99000   0.10038657    7.6499233    1492961.7    1492969.4   -860.73001 
   99500  0.099998181    7.6509976    1494148.3      1494156   -859.73396 
  100000   0.10006892    7.6507258    1493952.6    1493960.4   -860.31947 
  100500   0.10032578    7.6517635    1493952.6    1493960.4   -860.46613 
  101000   0.10001821    7.6519536    1495733.9    1495741.7   -858.75116 
  101500   0.10058987    7.6532683    1494674.1    1494681.9   -859.29496 
  102000   0.10075502    7.6539679    1495369.1    1495376.8    -859.6574 
  102500  0.099763629    7.6547759    1493851.1    1493858.9   -859.05503 
  103000   0.10000514    7.6537483    1492173.9    1492181.7    -857.8861 
  103500   0.10092566     7.653182    1492173.9    1492181.6    -862.6377 
  104000   0.10027325    7.6534159    1491619.9    1491627.7   -859.40924 
  104500    0.1004182    7.6531201      1492224    1492231.8   -860.92617 
  105000  0.099931715    7.6535661      1492498    1492505.7   -859.62388 
  105500   0.10004839     7.653262    1490477.7    1490485.4   -859.86572 
  106000   0.10064857    7.6536251    1489998.6    1490006.3   -860.35044 
  106500  0.099783816    7.6545009    1489998.6    1490006.3   -860.90071 
  107000    0.1000329    7.6526404    1490383.5    1490391.3   -859.61048 
  107500   0.10036122    7.6522632      1490183    1490190.7   -859.81693 
  108000   0.10017716    7.6536044    1490953.4    1490961.1   -859.36777 
  108500   0.10053371    7.6530656    1491985.2    1491992.9   -858.13819 
  109000   0.10041822    7.6544033      1491985    1491992.7   -860.10914 
  109500  0.099971041    7.6527985    1489287.2    1489294.9   -862.38972 
  110000   0.10014042     7.652034    1488045.9    1488053.6   -859.08122 
  110500   0.10018301    7.6540901      1484866    1484873.7   -858.85579 
  111000   0.10064957     7.655474    1481994.5    1482002.2   -860.52443 
  111500    0.1004823    7.6568433    1481849.6    1481857.3   -862.84787 
  112000   0.10020153     7.657706    1478185.5    1478193.2   -862.81025 
  112500   0.10029531    7.6564073    1478185.6    1478193.3   -860.53679 
  113000   0.10098698    7.6596535    1479148.2      1479156   -858.31618 
  113500   0.10004948    7.6579119      1475499    1475506.7   -860.89721 
  114000   0.10039608    7.6570818    1471239.2    1471246.9   -859.97531 
  114500   0.10041199    7.6590266    1469115.5    1469123.3   -860.56598 
  115000   0.10041273     7.658992    1466238.7    1466246.5   -857.62771 
  115500    0.1001554    7.6605728    1466238.7    1466246.4   -860.95487 
  116000   0.10059222     7.661548    1463378.3      1463386   -860.94305 
  116500   0.10035982    7.6619672    1458833.4    1458841.2   -862.17499 
  117000   0.10008279    7.6627448    1457569.1    1457576.8   -859.87079 
  117500  0.099749864    7.6626872      1457154    1457161.8   -858.19575 
  118000   0.10027439    7.6636858      1456664    1456671.7   -857.90165 
  118500   0.10011057    7.6638074    1456043.8    1456051.5   -859.90563 
  119000   0.10051876    7.6634502    1456043.8    1456051.5   -858.14687 
  119500   0.10084434    7.6648424    1454591.3    1454599.1   -860.78645 
  120000   0.10023841    7.6649651    1456708.3      1456716   -862.11624 
  120500   0.10039621    7.6644577    1457733.2      1457741   -858.39567 
  121000   0.10033174    7.6634474    1457757.6    1457765.3   -858.73222 
  121500   0.10020758    7.6630711    1460874.1    1460881.9   -858.56051 
  122000   0.10043077    7.6635411    1460874.2    1460881.9   -859.90254 
  122500   0.10072273    7.6642956    1461744.5    1461752.3   -860.50562 
  123000   0.10000071     7.663253    1465535.4    1465543.1     -858.553 
  123500   0.10033928    7.6637426    1468350.8    1468358.6   -861.61474 
  124000   0.10071168    7.6639015    1470886.2    1470893.9   -858.79443 
  124500    0.1000319    7.6643941      1474895    1474902.8   -859.72102 
  125000   0.10023234    7.6640247    1478401.2    1478408.9   -860.95204 
  125500    0.1004463    7.6635625    1478401.2      1478409   -861.12625 
  126000   0.10042292    7.6622366    1483881.1    1483888.8   -859.81383 
  126500    0.1001646    7.6637494    1486960.1    1486967.8   -861.53165 
  127000   0.10039242    7.6626645    1490700.9    1490708.6   -860.93705 
  127500   0.10042158    7.6639344    1492479.7    1492487.4   -859.06383 
  128000   0.10031093     7.662944    1492479.7    1492487.4   -860.43287 
  128500  0.099945171    7.6650094    1495577.5    1495585.2   -859.01401 
  129000   0.10096378    7.6641408      1496374    1496381.7   -858.72779 
  129500   0.10034941    7.6634229      1496941    1496948.8   -860.25484 
  130000   0.10034579    7.6621052    1497004.3      1497012   -858.82626 
  130500   0.10011668    7.6624855    1498977.4    1498985.2    -858.9024 
  131000   0.10021952     7.661515    1498977.4    1498985.1   -860.92148 
  131500   0.10028046    7.6610652      1500680    1500687.7   -858.53674 
  132000   0.10044018    7.6617618    1500984.2    1500991.9   -858.08119 
  132500   0.10000852    7.6619598      1502733    1502740.7   -858.66443 
  133000   0.10057828    7.6619005    1498833.4    1498841.1   -859.49033 
  133500     0.100457    7.6626148    1496691.9    1496699.6   -860.11364 
  134000   0.10047057    7.6639354    1497355.1    1497362.8   -859.91479 
  134500   0.10013661    7.6636508      1498997    1499004.7   -859.17704 
  135000   0.10041464    7.6627164    1498306.2      1498314   -858.19046 
  135500   0.10006409    7.6630496    1499818.4    1499826.1   -860.39623 
  136000   0.10030833    7.6611195    1499691.8    1499699.5   -857.12682 
  136500   0.10018736    7.6614713    1500117.5    1500125.3   -860.09187 
  137000    0.1001342    7.6618502    1499994.3    1500002.1   -859.34381 
  137500   0.10012041    7.6607304    1503002.2    1503009.9   -860.59925 
  138000   0.10038049    7.6605083    1505044.2      1505052   -859.97993 
  138500   0.10053813    7.6590783    1505881.3      1505889   -859.01393 
  139000   0.10027487    7.6610929    1503966.7    1503974.4   -862.61297 
  139500   0.10041292     7.660642    1503966.6    1503974.4   -863.32335 
  140000   0.10032405    7.6597619      1504465    1504472.7   -861.05497 
  140500   0.10013676     7.658658    1502838.3      1502846   -860.14401 
  141000    0.1004374    7.6589445    1499660.5    1499668.2   -860.41735 
  141500   0.10032749    7.6597859    1499972.6    1499980.3    -859.5996 
  142000   0.10047877    7.6595366    1493433.4    1493441.2   -860.80484 
  142500   0.10014609     7.659054    1493433.4    1493441.1   -860.28886 
  143000    0.1003146    7.6588236    1491373.7    1491381.4   -860.29986 
  143500   0.10035708    7.6594747    1488268.4    1488276.1   -859.96489 
  144000  0.099923659    7.6607432    1484714.6    1484722.3   -859.71095 
  144500   0.10040127    7.6604217    1481360.7    1481368.5   -859.67917 
  145000   0.10013121    7.6601242    1477596.3      1477604   -861.68975 
  145500   0.10026502    7.6595642    1477596.3    1477604.1   -858.81444 
  146000   0.09994958    7.6606071    1474647.6    1474655.3   -859.68426 
  146500    0.1006642     7.661908    1471493.3      1471501    -860.1972 
  147000   0.09992984    7.6619055    1469961.9    1469969.7   -858.97038 
  147500    0.1004392    7.6628776    1469374.9    1469382.6   -858.33455 
  148000   0.10018311    7.6605147    1465634.3      1465642   -861.36137 
  148500   0.10018735    7.6596264    1465634.3      1465642   -861.51728 
  149000   0.10026758    7.6596265    1462842.4    1462850.1   -858.49585 
  149500   0.10072353    7.6594284    1460729.6    1460737.3   -859.36138 
  150000   0.10040772    7.6589294    1457230.9    1457238.6    -859.1275 
  150500   0.10018908    7.6592412    1457230.9    1457238.6   -856.99787 
  151000   0.10003901     7.658423    1455102.5    1455110.3   -861.46481 
  151500   0.10050415    7.6571039    1453911.6    1453919.3   -859.16599 
  152000   0.10036088    7.6566936    1451501.9    1451509.6   -857.82313 
  152500    0.1007162    7.6561107    1450832.9    1450840.6   -859.46786 
  153000   0.10009627    7.6565351    1449991.3      1449999   -859.64999 
  153500   0.10002019    7.6572979    1446980.2    1446987.9   -861.66881 
  154000   0.10042367    7.6551604    1446980.2    1446987.9   -859.52288 
  154500   0.10017367    7.6546446    1448023.9    1448031.7   -862.84923 
  155000    0.1008163    7.6540244    1447412.4    1447420.1   -861.06893 
  155500   0.10034798    7.6540835    1447674.6    1447682.4   -861.31807 
  156000   0.10030426     7.654213    1447362.4    1447370.1   -862.24764 
  156500   0.10027582     7.654434    1446943.7    1446951.4   -860.02378 
  157000   0.10031338    7.6540444    1447390.5    1447398.3    -860.9629 
  157500   0.10054436      7.65373    1448060.2    1448067.9   -860.75866 
  158000   0.10013761    7.6525994    1451379.8    1451387.5   -861.66825 
  158500  0.099852782    7.6540493    1451057.1    1451064.8   -858.84035 
  159000   0.10047593    7.6510023    1451057.1    1451064.8   -858.97807 
  159500   0.10006352    7.6510893    1454047.7    1454055.4   -858.01839 
  160000   0.10005963    7.6512235    1452593.7    1452601.4    -859.6484 
  160500   0.10037168    7.6510589    1452903.7    1452911.4   -860.41953 
  161000   0.10087363    7.6505764    1454119.3      1454127   -861.47398 
  161500   0.10034571    7.6505299    1455683.6    1455691.3   -860.86433 
  162000    0.1005756    7.6515416    1456613.6    1456621.3   -860.89009 
  162500    0.1003971    7.6490375    1456613.7    1456621.4   -862.06129 
  163000   0.10016559    7.6490727    1460467.5    1460475.2   -861.18546 
  163500   0.10014494    7.6480863      1464239    1464246.7   -858.65939 
  164000   0.10062608    7.6483277    1463594.2    1463601.9   -859.65645 
  164500   0.10034133    7.6475879    1465033.7    1465041.5   -859.89954 
  165000   0.10038368    7.6465549    1467247.6    1467255.4   -860.93527 
  165500   0.10026025    7.6450628    1468419.2    1468426.9    -861.3943 
  166000   0.10043667    7.6462196    1471250.7    1471258.4   -860.90619 
  166500   0.10060343    7.6446582    1473061.2    1473068.9   -860.92991 
  167000   0.10047234    7.6447891      1476189    1476196.7   -860.92946 
  167500   0.10059817    7.6418878    1477726.6    1477734.3   -859.07278 
  168000    0.1005657    7.6438343    1480340.6    1480348.3   -858.20883 
  168500   0.10048987     7.644152    1483395.7    1483403.5   -857.60473 
  169000   0.09983741    7.6427926    1485536.4    1485544.1   -862.00085 
  169500  0.099694981    7.6409985    1488441.8    1488449.5   -860.37285 
  170000    0.1001257    7.6394014    1491114.6    1491122.3   -861.84822 
  170500   0.10014892    7.6405041    1496090.7    1496098.4   -860.79851 
  171000   0.10025357    7.6399588    1499708.8    1499716.6   -861.83699 
  171500   0.10063089    7.6395302      1499709    1499716.7   -861.78164 
  172000   0.10048044    7.6399082      1503886    1503893.8    -860.8282 
  172500   0.10026273    7.6397324    1505870.9    1505878.6   -861.57413 
  173000   0.10046329    7.6395029    1510204.5    1510212.2   -859.97048 
  173500   0.10035984    7.6381168    1513562.8    1513570.5   -861.17591 
  174000   0.10048141    7.6386488    1517076.9    1517084.6      -857.84 
  174500   0.10051972    7.6372748    1518824.2    1518831.9   -860.56709 
  175000   0.10010384    7.6375652    1519831.2    1519838.9   -858.28278 
  175500  0.099903991     7.637395    1519831.4    1519839.1   -858.84392 
  176000   0.10040638    7.6364188    1521544.6    1521552.3   -861.21487 
  176500   0.10045555    7.6364238    1526751.5    1526759.2   -859.66799 
  177000  0.099910109    7.6361334    1527301.9    1527309.6   -860.07129 
  177500   0.10024971    7.6349628    1526565.8    1526573.5   -860.89564 
  178000   0.10052703    7.6347316    1527592.2    1527599.9   -858.18671 
  178500   0.10018063    7.6349867    1527220.8    1527228.5   -859.07276 
  179000   0.10030415    7.6352509    1527289.1    1527296.8   -858.82295 
  179500   0.10024281    7.6348346    1527297.3    1527305.1   -861.52043 
  180000  0.099930796    7.6329482    1528309.5    1528317.2   -861.38027 
  180500    0.1003187    7.6320992      1527859    1527866.7   -862.32484 
  181000   0.10049015    7.6305676    1527858.8    1527866.5   -859.55067 
  181500   0.10005099    7.6311092    1528008.2    1528015.9   -858.46403 
  182000  0.099959883    7.6299959    1526365.9    1526373.6   -861.16898 
  182500   0.10016629    7.6303752    1526365.9    1526373.6   -861.29381 
  183000  0.099922378    7.6314827    1523221.7    1523229.4   -860.83099 
  183500    0.1001509    7.6314718    1520249.6    1520257.3   -860.18214 
  184000   0.10059789    7.6305192      1518774    1518781.7   -860.13408 
  184500   0.10039482    7.6284049    1518184.5    1518192.2   -859.34729 
  185000   0.10029783    7.6267525      1514340    1514347.7   -858.31421 
  185500    0.1002476     7.626856      1510757    1510764.7   -859.96798 
  186000   0.10001426    7.6256026    1504323.2    1504330.9   -859.47083 
  186500   0.09995131    7.6266481    1499714.1    1499721.8   -861.01409 
  187000   0.10029165    7.6248041    1499714.2    1499721.9   -860.88443 
  187500   0.10050797    7.6242899    1495160.4      1495168   -860.52153 
  188000    0.1001923    7.6237022      1493643    1493650.7   -860.48132 
  188500   0.10001734    7.6231748    1491419.7    1491427.4   -858.02174 
  189000   0.10010425    7.6225756    1489363.1    1489370.8   -859.61623 
  189500   0.10047733    7.6240018    1485279.9    1485287.6   -860.52602 
  190000   0.10025773    7.6236726    1485279.8    1485287.5   -859.13277 
  190500  0.099927129    7.6230209      1485485    1485492.7   -859.74297 
  191000   0.10059864    7.6223674      1482144    1482151.7   -862.76339 
  191500   0.10044884    7.6236367    1478776.5    1478784.2   -861.12042 
  192000   0.10018408     7.623823      1479223    1479230.7   -859.46609 
  192500     0.100292    7.6239493    1477613.8    1477621.5   -858.34142 
  193000   0.10023625    7.6242404      1477115    1477122.7   -858.53198 
  193500   0.10085311    7.6242719    1473712.4    1473720.1   -860.20956 
  194000   0.10057862    7.6253911    1470750.6    1470758.3   -861.20479 
  194500   0.10042196    7.6243748    1469774.3      1469782   -859.07412 
  195000       0.1006    7.6246378    1469692.1    1469699.8   -858.91012 
  195500   0.10029153    7.6263541    1469780.9    1469788.6   -861.40681 
  196000   0.10063051    7.6255914    1466183.9    1466191.6   -860.86096 
  196500   0.10021085    7.6262507    1464995.5    1465003.2   -859.80141 
  197000   0.10016734    7.6253391    1464786.6    1464794.3   -860.47879 
  197500   0.10019899    7.6245563    1464471.4    1464479.1   -861.90843 
  198000   0.10030172    7.6244555    1462436.7    1462444.4   -859.72258 
  198500  0.099840322    7.6230855    1465985.3    1465992.9   -861.29096 
  199000   0.10035547    7.6230208    1465985.3      1465993   -860.76773 
  199500   0.10041885    7.6228024    1467161.7    1467169.4   -862.52387 
  200000    0.1003751    7.6241112    1466272.2    1466279.9   -859.53405 
  200500   0.10021455    7.6240706    1466398.9    1466406.6   -860.42222 
  201000   0.10061244    7.6237955    1466627.4    1466635.1   -856.86233 
  201500   0.10070046     7.623646    1465166.4    1465174.1   -857.74675 
  202000   0.10007534     7.623364    1467005.1    1467012.8    -860.8777 
  202500   0.10004529     7.622318    1467005.2    1467012.9   -862.16303 
  203000   0.10012071    7.6232921    1465650.8    1465658.5   -862.32692 
  203500   0.10027278    7.6219664    1468411.5    1468419.2   -857.76014 
  204000   0.10067524    7.6223189    1469169.7    1469177.4   -861.29989 
  204500   0.10049175    7.6220421    1468597.9    1468605.6   -860.89301 
  205000    0.1003523    7.6233251    1470984.9    1470992.6     -859.402 
  205500   0.10005471    7.6228675    1471982.9    1471990.6   -858.85231 
  206000   0.10084985    7.6231926    1472626.9    1472634.6   -859.06278 
  206500   0.10050086    7.6228013    1473220.5    1473228.2   -860.84146 
  207000   0.10050075    7.6247749    1473220.5    1473228.2   -861.78978 
  207500   0.10052577    7.6245364    1473524.9    1473532.6   -862.87845 
  208000  0.099821567     7.625271    1475891.6    1475899.3   -862.01866 
  208500   0.10028196    7.6256599    1475891.6    1475899.3   -860.65849 
  209000   0.10042277    7.6252001    1474852.5    1474860.2   -858.80067 
  209500    0.1000779    7.6273924    1472562.5    1472570.2   -858.80142 
  210000   0.10035095    7.6271466    1470096.5    1470104.2    -860.7433 
  210500   0.10033554    7.6264603    1467983.3      1467991   -860.95913 
  211000   0.10046836    7.6280341    1467393.5    1467401.2   -862.32849 
  211500   0.10007218    7.6279966    1463258.2    1463265.9   -861.74095 
  212000   0.10023341    7.6277261    1460432.1    1460439.8   -858.14323 
  212500     0.100184     7.625792    1458663.7    1458671.4   -861.70273 
  213000   0.10073737     7.626805    1458663.7    1458671.4   -860.26802 
  213500   0.10061665    7.6280894    1453899.6    1453907.3   -860.03646 
  214000   0.10037891    7.6278242    1451082.4    1451090.1   -857.31165 
  214500   0.10035071     7.629297      1448304    1448311.7   -859.55115 
  215000   0.10038309    7.6290475    1446615.9    1446623.6   -861.82507 
  215500   0.10028261     7.630222    1439556.1    1439563.8   -862.40399 
  216000   0.10061625    7.6306899    1433378.5    1433386.2   -857.65165 
  216500   0.10044948    7.6311696      1428138    1428145.8   -861.18667 
  217000   0.10048006    7.6311461    1425330.4    1425338.1   -859.12718 
  217500   0.10028463    7.6303882    1425330.3      1425338   -862.14578 
  218000   0.09989096    7.6307985    1422127.7    1422135.4   -861.33512 
  218500   0.10048492    7.6318822    1421435.1    1421442.8   -860.94552 
  219000    0.1000551    7.6304344    1419472.3      1419480   -862.14836 
  219500   0.10023369     7.631806      1418320    1418327.7   -857.27744 
  220000   0.10042313    7.6299799    1417862.6    1417870.3   -859.09834 
  220500   0.10050122    7.6303073    1417752.2    1417759.9   -862.53884 
  221000   0.09982935    7.6311121    1417178.6    1417186.3   -858.32499 
  221500   0.10045031    7.6314236    1416339.9    1416347.6   -861.38267 
  222000  0.099895376    7.6310481    1416339.9    1416347.6   -860.27754 
  222500   0.10023642    7.6318169    1417516.5    1417524.2   -860.77231 
  223000    0.1004545    7.6331897    1418098.8    1418106.5   -861.57826 
  223500   0.10022345    7.6327689    1419177.8    1419185.5    -859.6878 
  224000   0.10037594    7.6324201    1420514.5    1420522.2   -860.62527 
  224500   0.10071348    7.6334893      1420789    1420796.7   -860.63134 
  225000    0.1004465    7.6333964    1424433.1    1424440.9   -860.57357 
  225500   0.10037645    7.6335807    1428209.4    1428217.1   -860.40331 
  226000   0.10032587    7.6341827    1428209.3      1428217   -860.00773 
  226500   0.10015169    7.6334042    1432746.6    1432754.3    -860.1355 
  227000   0.10038574    7.6326891    1432746.6    1432754.3   -858.89162 
  227500     0.100274    7.6321671    1435713.8    1435721.5   -859.63226 
  228000   0.10033263    7.6315918    1439698.4    1439706.1   -860.38217 
  228500    0.1002401    7.6312741    1442768.7    1442776.4   -860.60393 
  229000   0.10001291     7.632231    1445264.1    1445271.8     -860.771 
  229500   0.10033369    7.6315016    1447241.3      1447249   -862.46546 
  230000   0.09984526    7.6320898    1447241.4    1447249.1   -857.91172 
  230500   0.10036043     7.633335    1448697.5    1448705.2   -861.30788 
  231000   0.10056014    7.6316064    1453985.9    1453993.6   -860.80119 
  231500     0.100264    7.6333247    1453314.7    1453322.4    -858.8535 
  232000   0.10022874    7.6341652    1454334.5    1454342.2   -859.98221 
  232500   0.10024178    7.6344448    1457049.3      1457057   -858.98854 
  233000   0.10019494    7.6345128    1458574.5    1458582.2   -860.84578 
  233500   0.10006302    7.6336415    1458605.6    1458613.3   -861.21214 
  234000   0.10020933     7.631547    1460939.7    1460947.4     -860.108 
  234500   0.10067467    7.6331496      1462125    1462132.7   -859.90993 
  235000   0.10007582    7.6336724    1463753.7    1463761.4   -857.31298 
  235500   0.10016318     7.632824    1466852.5    1466860.2   -862.29003 
  236000   0.10035039    7.6334996    1466852.7    1466860.4    -859.4598 
  236500   0.10018638    7.6350289      1469410    1469417.7   -858.73871 
  237000   0.10050268    7.6331952    1470004.8    1470012.5   -859.82596 
  237500   0.10024112    7.6326873    1471580.7    1471588.4   -858.60469 
  238000   0.10037558    7.6353362    1470626.4    1470634.1   -860.30193 
  238500  0.099975057    7.6338995    1467336.2    1467343.9   -859.24641 
  239000   0.10018871    7.6336355    1467336.1    1467343.8   -861.53484 
  239500   0.10064158    7.6334817    1467389.1    1467396.8   -859.03577 
  240000   0.10002777    7.6346379      1467189    1467196.7    -859.3091 
  240500   0.10033838    7.6372236    1465007.9    1465015.6   -858.94167 
  241000   0.10008687    7.6371071    1463313.4    1463321.1   -857.87159 
  241500   0.10046897    7.6365948    1459904.2    1459911.9   -862.74936 
  242000   0.10043188     7.637143    1458301.4    1458309.1   -860.36097 
  242500   0.10055489    7.6376504    1456545.4    1456553.1   -858.03905 
  243000   0.10040461    7.6385033    1456545.4    1456553.2   -860.57213 
  243500   0.10075153     7.638805    1455786.7    1455794.5   -860.26458 
  244000   0.10042502    7.6374056    1452967.5    1452975.2   -862.35698 
  244500  0.099844885    7.6402301    1453056.6    1453064.3   -858.66222 
  245000   0.10025222     7.638641    1453888.1    1453895.8   -858.59537 
  245500   0.10023784    7.6407165      1452616    1452623.7   -861.10797 
  246000   0.10045755    7.6404586    1451167.3      1451175   -860.33612 
  246500   0.10005334    7.6405296    1450916.6    1450924.3   -858.97865 
  247000   0.10056614    7.6413111    1451418.2    1451425.9   -861.30977 
  247500   0.10054639    7.6394742    1451383.1    1451390.8   -859.27749 
  248000  0.099991545    7.6391844    1450094.7    1450102.4   -861.13422 
  248500   0.10087799    7.6399325    1450241.4    1450249.1   -862.76086 
  249000   0.10008101    7.6401487    1448832.3      1448840   -859.13605 
  249500   0.10071089    7.6420399    1448095.2    1448102.9   -857.30778 
  250000   0.10046524    7.6395524    1449428.8    1449436.5    -860.8876 
  250500    0.1004574    7.6394115    1449428.8    1449436.5   -861.59602 
  251000  0.099989452    7.6405735    1450399.7    1450407.4   -860.00431 
  251500   0.10042718    7.6426965    1450872.4    1450880.1   -861.19839 
  252000    0.1004619    7.6429873      1452922    1452929.8   -859.15879 
  252500   0.10023826    7.6417292      1452922    1452929.7   -860.32105 
  253000   0.10017985    7.6399503    1453990.7    1453998.4   -861.97817 
  253500   0.10021187    7.6397964    1457914.4    1457922.1   -861.33827 
  254000   0.10037359      7.64047    1458240.2    1458247.9   -858.68189 
  254500   0.10013328    7.6420977    1461432.2    1461439.9   -858.96417 
  255000   0.10029568    7.6424829    1463507.4    1463515.2    -862.2383 
  255500   0.10055883     7.644488    1466165.4    1466173.1    -860.7679 
  256000   0.10075702    7.6447933    1469869.7    1469877.4   -860.52949 
  256500   0.10026132    7.6437144    1472399.9    1472407.7   -862.47808 
  257000   0.10024439    7.6462793    1473871.7    1473879.4   -859.91178 
  257500   0.10071975    7.6463111    1474554.6    1474562.3   -859.93482 
  258000   0.10089608    7.6487609    1474514.7    1474522.5    -859.8005 
  258500   0.10059726    7.6493005    1472110.1    1472117.8   -858.42176 
  259000   0.10014596    7.6503875    1472110.1    1472117.8   -859.92346 
  259500   0.10060951    7.6520238    1471685.4    1471693.1   -860.90792 
  260000   0.10037448    7.6522886    1470151.9    1470159.6   -859.48036 
  260500    0.1003749    7.6515108    1470151.9    1470159.7   -857.48888 
  261000    0.1002969     7.652706    1470628.4    1470636.1   -860.00748 
  261500   0.10026276    7.6533335      1470212    1470219.7   -860.22969 
  262000   0.10065734    7.6549999    1470368.5    1470376.3   -858.39292 
  262500   0.10032569    7.6548679    1469950.3      1469958   -861.49983 
  263000   0.10011543    7.6555871    1469029.3      1469037   -859.91572 
  263500   0.10051382    7.6576881    1469327.9    1469335.6   -858.12969 
  264000   0.10036529    7.6586267    1466307.1    1466314.9   -860.47244 
  264500   0.10046986    7.6593443    1465310.6    1465318.3   -860.53026 
  265000   0.10062357    7.6608305    1464498.8    1464506.5   -859.46243 
  265500   0.10063711    7.6614224    1462491.6    1462499.3   -859.44585 
  266000   0.10016642    7.6622775    1461548.9    1461556.7   -859.53432 
  266500   0.10032211    7.6620323    1461507.1    1461514.8   -859.80396 
  267000   0.10027946    7.6622482    1459364.2    1459371.9   -861.11589 
  267500   0.10058084    7.6638277    1459177.5    1459185.3   -862.27971 
  268000   0.10000177    7.6641155    1456753.8    1456761.5   -860.67873 
  268500   0.10002741    7.6643538    1455962.5    1455970.2   -859.04133 
  269000   0.10043811    7.6650398    1457066.6    1457074.4   -858.20786 
  269500   0.10070402    7.6668218    1454929.5    1454937.2   -859.60467 
  270000   0.10002196    7.6675483    1454947.7    1454955.4   -863.85293 
  270500   0.10024563    7.6685233    1453564.2    1453571.9   -856.77204 
  271000    0.1000691    7.6709662    1453439.5    1453447.3   -860.30185 
  271500   0.10067538    7.6701449    1451528.1    1451535.9   -861.50929 
  272000   0.10024706    7.6707638    1450761.3      1450769   -859.10347 
  272500   0.10034583    7.6735237    1448202.4    1448210.1   -860.36912 
  273000  0.099973019    7.6741369    1445239.9    1445247.6   -858.87539 
  273500    0.1008124    7.6756338    1442295.9    1442303.7   -860.62973 
  274000   0.10043298    7.6754054    1439337.1    1439344.8   -860.83515 
  274500   0.10008849    7.6765865    1438618.1    1438625.8   -858.82517 
  275000  0.099893572    7.6761201    1436310.3      1436318   -859.02129 
  275500   0.10040205    7.6763942    1437341.9    1437349.7   -858.80216 
  276000   0.10036849    7.6764732    1437341.9    1437349.7   -859.20919 
  276500   0.10019753    7.6755264      1435150    1435157.8   -857.15013 
  277000   0.09988702    7.6771468    1434560.3      1434568   -859.10627 
  277500   0.10044348    7.6777322    1432575.4    1432583.1   -860.29199 
  278000   0.10036982    7.6782167    1432002.9    1432010.6   -860.73284 
  278500   0.10076339    7.6785708    1432658.3    1432666.1   -859.70912 
  279000  0.099717011    7.6783085    1433787.9    1433795.6   -861.59958 
  279500   0.10000221    7.6770073      1432189    1432196.7   -860.34801 
  280000   0.10001702    7.6760066    1432166.4    1432174.2   -857.39361 
  280500   0.10032911    7.6772518    1433477.9    1433485.6   -859.33662 
  281000    0.1004275    7.6777114    1433032.6    1433040.3   -861.24257 
  281500    0.1003119    7.6781667    1433494.6    1433502.3   -857.15494 
  282000   0.10059479    7.6769348    1431104.5    1431112.2   -860.83995 
  282500   0.10019737    7.6775942    1429626.9    1429634.7   -859.80208 
  283000   0.10050789    7.6774351    1428713.1    1428720.9   -858.70966 
  283500   0.10053448    7.6765104    1429268.2      1429276   -860.47123 
  284000   0.10012591    7.6769534    1430723.4    1430731.1   -861.07654 
  284500   0.10010507    7.6774811    1431854.2      1431862   -858.90569 
  285000   0.10019081     7.677644    1431817.5    1431825.3   -860.04807 
  285500   0.10034082    7.6770024    1432558.8    1432566.6   -861.22394 
  286000   0.10003229    7.6777382    1433229.6    1433237.4   -860.92052 
  286500   0.10010471    7.6767148    1432732.5    1432740.3    -858.5995 
  287000   0.10037992    7.6759888    1434372.8    1434380.6   -858.32507 
  287500  0.099972698    7.6782701    1434784.9    1434792.6   -859.05465 
  288000    0.1000047     7.678177    1434903.6    1434911.4   -861.37349 
  288500   0.10002016    7.6757893    1435994.2      1436002   -860.16978 
  289000  0.099885407    7.6755957    1439015.8    1439023.5   -860.06058 
  289500  0.099840997    7.6755119    1438823.7    1438831.4    -858.8204 
  290000   0.10069256    7.6763673      1440161    1440168.8   -857.04505 
  290500   0.10052556    7.6760395    1438874.9    1438882.7    -859.3672 
  291000   0.10002178    7.6751746    1440093.7    1440101.4   -859.87373 
  291500   0.10023387    7.6773532    1442651.9    1442659.7   -859.65669 
  292000   0.10067504    7.6757863    1443793.5    1443801.2   -860.63834 
  292500   0.10043606    7.6745363    1443793.5    1443801.3   -859.13796 
  293000   0.10035783    7.6746948    1447582.9    1447590.7   -858.86569 
  293500  0.099883728    7.6751476    1451586.5    1451594.2   -861.79513 
  294000   0.10044975    7.6743107    1455727.1    1455734.9    -861.1404 
  294500   0.10007146    7.6735178    1459890.8    1459898.5   -859.81512 
  295000   0.10046989    7.6715374    1463804.1    1463811.8   -860.59049 
  295500  0.099835805     7.671105    1464212.9    1464220.6   -864.26773 
  296000   0.10049382    7.6704165    1469096.5    1469104.2   -863.78426 
  296500   0.10007262     7.670623    1470811.9    1470819.7   -857.19916 
  297000   0.10030502    7.6704401      1470812    1470819.7   -861.67315 
  297500   0.10006943     7.670391    1471916.3      1471924   -859.60296 
  298000   0.10040133    7.6692906    1473513.5    1473521.2   -860.06329 
  298500   0.10014136    7.6687136    1474979.2      1474987   -860.95763 
  299000   0.10005407    7.6693099    1474979.3      1474987   -859.27502 
  299500    0.1004201    7.6682551    1474410.1    1474417.8   -860.52673 
  300000   0.10024629    7.6681648    1478117.5    1478125.2   -861.98038 
  300500   0.10044982    7.6666256    1478630.1    1478637.8   -860.09701 
  301000   0.10028428     7.665755    1477955.2    1477962.9   -856.68181 
  301500   0.10049232    7.6651728    1480381.4    1480389.1   -861.31518 
  302000  0.099510609    7.6657249    1480381.5    1480389.2   -863.07294 
  302500   0.10047792    7.6654026    1481372.3      1481380   -858.73802 
  303000   0.10076827    7.6635151    1484333.8    1484341.6   -859.06264 
  303500   0.10066124     7.662418    1486988.9    1486996.6   -860.60358 
  304000   0.10027904    7.6630022    1489088.1    1489095.9   -860.78302 
  304500   0.10072889    7.6606113    1490480.9    1490488.6   -860.03337 
  305000   0.10067713    7.6610434    1494583.3      1494591   -860.69878 
  305500   0.10045713    7.6595271    1494583.1    1494590.9    -858.8867 
  306000   0.10034819    7.6583944    1496837.8    1496845.6    -861.5956 
  306500   0.10043842    7.6577632      1497307    1497314.8   -861.54029 
  307000   0.10033503    7.6570632    1500025.5    1500033.2   -858.84355 
  307500   0.10018461    7.6566565    1500025.4    1500033.2   -858.61949 
  308000   0.10009876    7.6559053    1499242.5    1499250.3   -858.99847 
  308500   0.10066169    7.6554097    1502308.2    1502315.9   -859.56083 
  309000  0.099994438    7.6533803    1500489.9    1500497.7   -861.63852 
  309500   0.10057784     7.652397    1499358.7    1499366.4   -859.00633 
  310000   0.10014901    7.6510098    1499484.6    1499492.3   -859.35407 
  310500   0.10043981    7.6509813    1499484.5    1499492.2   -861.31393 
  311000   0.10026581    7.6509329    1503212.7    1503220.4    -862.0348 
  311500    0.1002623     7.650536    1503790.6    1503798.3   -857.86659 
  312000   0.10017092    7.6500644    1505808.2    1505815.9   -860.18089 
  312500   0.10041778    7.6480867    1506744.9    1506752.6   -859.17514 
  313000   0.10040337      7.64724    1506744.9    1506752.6   -858.89501 
  313500  0.099904082    7.6467235    1504390.1    1504397.8   -859.93919 
  314000   0.10038951    7.6475104      1505758    1505765.7   -862.34119 
  314500   0.10049184    7.6461458    1505556.8    1505564.5   -860.89581 
  315000   0.10049237    7.6450839    1505705.8    1505713.5   -861.37757 
  315500   0.10096249     7.644929    1506211.7    1506219.4   -862.86266 
  316000   0.10020218    7.6429673    1505372.5    1505380.3   -860.98985 
  316500   0.10010551    7.6425486    1505964.2    1505971.9   -859.63122 
  317000  0.099963335    7.6409323    1505608.4    1505616.1   -861.47305 
  317500   0.10011586    7.6397446    1504858.9    1504866.6   -863.35041 
  318000   0.10029275    7.6398487    1500560.5    1500568.2     -859.382 
  318500   0.10059397    7.6399168    1500560.4    1500568.1   -862.23676 
  319000   0.10061931    7.6389873    1497720.6    1497728.3   -859.98075 
  319500   0.10027569    7.6392507    1496718.9    1496726.7   -862.03599 
  320000   0.10051766    7.6382378    1493844.2    1493851.9   -858.12185 
  320500   0.10017373     7.637665    1493721.1    1493728.8   -861.83598 
  321000   0.10026737    7.6377272      1493721    1493728.7   -860.89745 
  321500   0.10017905    7.6364392    1487425.9    1487433.6   -859.78263 
  322000   0.10026921    7.6379822      1486542    1486549.7   -859.12327 
  322500   0.10040746    7.6376714    1480700.7    1480708.4   -859.85065 
  323000   0.10022455    7.6366004    1476716.3      1476724   -859.67959 
  323500   0.10017313     7.636479    1474694.6    1474702.3   -861.68068 
  324000   0.10010633    7.6370467    1471419.1    1471426.8   -861.34972 
  324500   0.10050049    7.6365581    1471419.2    1471426.9    -859.7469 
  325000    0.1004339     7.636413    1463524.2    1463531.9   -860.11574 
  325500   0.10079426    7.6365331    1463524.1    1463531.8   -859.64212 
  326000   0.10080362    7.6361669      1461433    1461440.8    -857.3657 
  326500   0.10070413     7.634828    1460955.1    1460962.8   -862.34444 
  327000   0.10019988    7.6344512    1459797.9    1459805.6   -860.77758 
  327500   0.10045818    7.6340262    1458066.6    1458074.3   -858.81998 
  328000   0.10014401    7.6350075    1458066.6    1458074.3   -859.79847 
  328500   0.10052599    7.6349059    1457427.9    1457435.6   -859.10684 
  329000    0.1000909    7.6350536    1454717.5    1454725.2    -859.7769 
  329500   0.10018762    7.6361007    1453476.4    1453484.1   -862.03957 
  330000   0.10065362    7.6370708    1450584.8    1450592.5   -860.12973 
  330500   0.10049056    7.6386196    1448830.9    1448838.6   -859.61121 
  331000   0.10034272    7.6368734    1448037.8    1448045.5   -858.55137 
  331500   0.10037936    7.6361931    1445523.7    1445531.4   -858.64203 
  332000   0.10037433    7.6365701      1444028    1444035.7   -860.31493 
  332500   0.10007603    7.6365619    1439733.4    1439741.1   -860.16809 
  333000   0.10060403     7.638025    1439015.4    1439023.1   -859.77087 
  333500    0.1003002    7.6361333    1439081.7    1439089.4   -859.24958 
  334000   0.10035982    7.6371183    1439043.3      1439051   -860.58226 
  334500   0.10007967    7.6371703    1438712.5    1438720.2    -859.4542 
  335000   0.10071486    7.6369629    1437909.9    1437917.6   -860.62543 
  335500  0.099841714    7.6358276    1437909.8    1437917.5      -860.06 
  336000   0.10038726    7.6356572    1437248.6    1437256.4   -859.13893 
  336500   0.10065903    7.6381557    1438878.4    1438886.1   -859.28694 
  337000   0.10028793     7.637021    1440927.9    1440935.6   -860.12679 
  337500   0.10004529    7.6390046    1440927.9    1440935.7   -861.04585 
  338000   0.10031206    7.6371801    1441069.8    1441077.5   -859.87211 
  338500   0.10046159    7.6369759    1441741.4    1441749.1   -861.45949 
  339000   0.10040116    7.6374749    1445221.4    1445229.1   -861.05166 
  339500   0.10035059    7.6383004      1446952    1446959.7   -859.56583 
  340000   0.10028586    7.6387682    1450913.1    1450920.8   -859.41472 
  340500  0.099980515    7.6382827    1451537.4    1451545.1   -860.93748 
  341000   0.10038204    7.6395644    1454829.5    1454837.2     -859.967 
  341500   0.10008139    7.6392712    1459214.7    1459222.5   -858.59113 
  342000   0.10021052    7.6408615    1462415.9    1462423.6    -860.1237 
  342500  0.099903719    7.6406892    1466225.4    1466233.1   -857.74662 
  343000   0.10016341    7.6411251    1466225.4    1466233.1   -860.41717 
  343500   0.10062814    7.6409188    1474790.5    1474798.2   -858.78147 
  344000   0.10037738    7.6393036    1474882.1    1474889.8   -863.42491 
  344500   0.10007832    7.6393939    1477698.9    1477706.6   -860.57563 
  345000  0.099752413    7.6389333      1477699    1477706.7   -861.45612 
  345500   0.10072226    7.6386283    1479486.4    1479494.1   -858.96974 
  346000      0.10066    7.6391624    1484060.7    1484068.4    -857.8617 
  346500   0.10057352    7.6386765    1488219.6    1488227.3   -859.45597 
  347000   0.10044366    7.6391316    1489409.1    1489416.8   -858.24973 
  347500    0.1001629    7.6401581    1492276.9    1492284.6   -859.22872 
  348000   0.10030728    7.6400361      1495550    1495557.7   -860.37429 
  348500   0.10041345    7.6390424    1495549.9    1495557.6   -859.78291 
  349000   0.10017816    7.6398979    1498416.2    1498423.9   -859.16085 
  349500   0.10039061    7.6380513    1499925.4    1499933.1   -860.76802 
  350000   0.10040688    7.6394844    1502155.9    1502163.6   -861.10003 
  350500   0.10024763    7.6390413    1502579.2    1502586.9    -861.7879 
  351000   0.10037291    7.6386228    1503932.6    1503940.3   -861.47745 
  351500   0.10034431    7.6401656    1503932.7    1503940.4   -861.78527 
  352000   0.10016482    7.6413415    1504714.1    1504721.8   -863.83051 
  352500   0.10063177    7.6398414      1505449    1505456.7   -860.38516 
  353000   0.10017635     7.639295    1505285.7    1505293.4   -859.93279 
  353500   0.10030953    7.6401142    1506094.6    1506102.3   -861.23729 
  354000   0.10022598    7.6410232    1505453.4    1505461.1   -858.69477 
  354500   0.10038256    7.6417973    1505453.3      1505461   -861.65464 
  355000  0.099997904    7.6419507    1505386.9    1505394.6   -861.59616 
  355500   0.10031868    7.6434569      1503735    1503742.7   -859.84332 
  356000    0.1002368    7.6442146    1503735.1    1503742.8   -859.77831 
  356500   0.10076794    7.6456635    1502676.4    1502684.1   -860.24422 
  357000   0.10027957     7.644893    1501780.8    1501788.5   -860.25714 
  357500   0.10038734    7.6479685    1502989.4    1502997.1   -859.71608 
  358000   0.10022723    7.6472476    1501268.5    1501276.2    -859.6712 
  358500   0.10014373    7.6476721    1499814.5    1499822.2   -861.54407 
  359000   0.10030801    7.6498494    1499814.4    1499822.1   -859.32946 
  359500   0.10001828    7.6509617    1497238.5    1497246.2   -860.14414 
  360000    0.1001312      7.65292      1497204    1497211.7   -864.15383 
  360500   0.10013706    7.6531532    1497204.1    1497211.8   -861.44376 
  361000   0.10020586    7.6524267    1497533.8    1497541.5   -860.26562 
  361500  0.099816703    7.6549479    1497533.9    1497541.6   -859.39917 
  362000   0.10019648    7.6545164    1496020.7    1496028.4   -861.07977 
  362500   0.10056961    7.6545165    1493467.6    1493475.3   -861.67666 
  363000    0.1003881    7.6548239    1492466.4    1492474.1   -860.38583 
  363500   0.10021351    7.6549506    1492466.6    1492474.4   -860.56402 
  364000  0.099807964    7.6546304    1489816.7    1489824.4    -860.6134 
  364500  0.099858827     7.654588    1488069.8    1488077.5    -859.3912 
  365000   0.10023948     7.654046    1487570.4    1487578.2   -860.06964 
  365500   0.10032154    7.6546743    1485646.7    1485654.5   -860.08546 
  366000   0.10034983       7.6548    1484950.3      1484958   -858.80095 
  366500  0.099901191    7.6547811    1484950.4    1484958.1   -857.86124 
  367000   0.10023058       7.6548    1487456.5    1487464.2   -859.58174 
  367500  0.099979919    7.6550413    1485116.8    1485124.5   -860.53088 
  368000   0.10034056    7.6557871      1487295    1487302.7    -862.6865 
  368500    0.1003075    7.6552339    1488872.5    1488880.3   -859.35534 
  369000   0.10031079    7.6550491    1489785.2      1489793   -859.14301 
  369500   0.10035149    7.6540064    1489785.3      1489793    -859.2621 
  370000   0.10046233     7.654351    1491760.9    1491768.6   -862.10185 
  370500   0.10021582    7.6528384    1494895.2    1494902.9   -859.30533 
  371000   0.10025383    7.6532824    1494895.2    1494902.9   -859.76295 
  371500   0.10011412    7.6538241      1496465    1496472.8   -858.99625 
  372000    0.1004113    7.6516409    1500852.5    1500860.2   -860.56333 
  372500   0.10049474    7.6506344    1502813.2    1502820.9    -861.7494 
  373000     0.100269    7.6501793    1506820.7    1506828.5   -858.62676 
  373500    0.1001698    7.6499561    1511120.6    1511128.3   -860.89235 
  374000   0.10063789    7.6507411    1511120.6    1511128.3   -858.58683 
  374500   0.10014511    7.6477079    1517045.5    1517053.3   -861.90467 
  375000   0.10019188    7.6495372    1518687.6    1518695.3   -857.82034 
  375500  0.099667501    7.6496398      1520937    1520944.7   -858.11443 
  376000   0.10055308    7.6500048    1521122.1    1521129.8   -860.39654 
  376500   0.10047213    7.6483211    1524163.2    1524170.9   -860.42381 
  377000   0.10054905    7.6472655    1525517.8    1525525.5   -858.89431 
  377500  0.099796796    7.6472393    1528362.1    1528369.9   -860.55171 
  378000   0.10000379    7.6456132    1531799.5    1531807.2   -859.61444 
  378500   0.10051857    7.6465676    1531653.7    1531661.4   -862.47404 
  379000    0.1000008    7.6466498    1531057.7    1531065.4   -859.47586 
  379500   0.10069657    7.6465613    1533621.8    1533629.5   -858.96211 
  380000   0.10039675    7.6461738      1533622    1533629.7   -859.59801 
  380500   0.10053323    7.6440177    1534728.6    1534736.4   -860.51607 
  381000   0.10055953    7.6434991    1536221.6    1536229.3   -861.09613 
  381500   0.10008668    7.6442377    1537139.7    1537147.5    -861.5553 
  382000   0.10067149    7.6422027      1539357    1539364.7   -861.24394 
  382500   0.10043558    7.6419446    1542524.8    1542532.5   -858.94773 
  383000   0.10037618    7.6402436    1541523.3      1541531   -861.92093 
  383500   0.10048336    7.6408694    1541523.3      1541531   -862.13382 
  384000   0.10062513    7.6398436    1540561.3      1540569   -861.51809 
  384500  0.099751721    7.6408689    1540561.2    1540568.9   -862.26105 
  385000   0.10007391    7.6394683    1542096.8    1542104.5   -860.06369 
  385500   0.10059436    7.6399185    1541508.5    1541516.2   -860.31434 
  386000   0.10059962    7.6394725    1540646.5    1540654.2    -860.4076 
  386500   0.10006462    7.6399379    1540646.6    1540654.3   -859.38324 
  387000   0.10045359    7.6395827    1540357.4    1540365.1   -861.51246 
  387500   0.10013285    7.6395553    1538734.1    1538741.8   -861.06686 
  388000   0.10009314    7.6407462    1537932.6    1537940.3   -859.10261 
  388500   0.10081727    7.6394103    1537129.4    1537137.1   -860.38116 
  389000   0.10024193     7.640899    1533835.5    1533843.2   -859.92893 
  389500   0.10031195    7.6405936    1532774.7    1532782.4   -860.15804 
  390000  0.099853539    7.6410644    1532774.7    1532782.4   -857.53678 
  390500  0.099918329    7.6401416    1529952.9    1529960.6   -858.81405 
  391000   0.10010765     7.638507    1526602.5    1526610.2   -860.77608 
  391500   0.10058153    7.6403606    1526031.4    1526039.1   -859.88937 
  392000  0.099969476    7.6382897    1527689.9    1527697.6   -860.45676 
  392500   0.10032562     7.638186    1527982.4    1527990.1   -858.50604 
  393000   0.10051324     7.638456    1525819.4    1525827.1   -859.31038 
  393500   0.10025636    7.6369442    1527713.7    1527721.4   -860.73261 
  394000   0.10049657    7.6370281    1528957.3      1528965   -860.87811 
  394500   0.10046542    7.6376289      1529218    1529225.7   -860.64949 
  395000   0.10030216    7.6372526      1529218    1529225.7   -858.92579 
  395500   0.10010867    7.6370302    1527316.7    1527324.5   -859.35502 
  396000   0.10009266    7.6374936    1528684.9    1528692.7   -856.81747 
  396500  0.099970189    7.6356001    1531389.2    1531396.9   -858.87011 
  397000   0.10002946    7.6355502      1532619    1532626.7   -863.59963 
  397500   0.10046497    7.6356671    1533987.8    1533995.5   -859.24516 
  398000    0.1001932    7.6340772    1532873.4    1532881.1   -859.22245 
  398500   0.10031628    7.6325108      1532166    1532173.7   -859.77418 
  399000   0.10040393    7.6323791    1534108.5    1534116.2   -860.90942 
  399500   0.10047564    7.6319126    1534756.8    1534764.5   -860.76767 
  400000   0.10047439    7.6309037      1532131    1532138.7   -858.22768 
  400500     0.100071    7.6298651    1530819.1    1530826.8   -859.31876 
  401000   0.10027829    7.6299985    1529202.5    1529210.2   -860.18994 
  401500   0.10045072    7.6288147    1526495.4    1526503.1   -861.53824 
  402000   0.10006522    7.6302618    1526495.4    1526503.1   -862.20703 
  402500   0.10010266    7.6292305    1521357.5    1521365.2    -860.3842 
  403000   0.10087338    7.6277932    1520135.4    1520143.1   -858.19059 
  403500   0.10032183    7.6264954    1517626.9    1517634.6   -861.62907 
  404000   0.10044084    7.6260023    1514485.5    1514493.2   -860.54802 
  404500   0.10086525     7.624906    1514485.5    1514493.2   -862.19346 
  405000   0.10073322    7.6254897    1513600.6    1513608.3   -862.11674 
  405500   0.10028664     7.625061    1509810.2    1509817.9    -860.6037 
  406000   0.10057716    7.6254745    1506178.2    1506185.9   -858.74866 
  406500   0.10064388    7.6256903    1506178.2    1506185.9   -860.12038 
  407000   0.10003629    7.6253295    1502934.5    1502942.2   -861.87707 
  407500   0.10044353    7.6235292    1498997.4    1499005.1    -860.7008 
  408000   0.10014795    7.6250523    1496151.2    1496158.9   -860.61397 
  408500    0.1004685    7.6245505    1496151.2    1496158.8   -860.74854 
  409000   0.10026686    7.6245499    1493334.4    1493342.1   -862.19422 
  409500   0.10022843    7.6259883      1489971    1489978.7   -861.71647 
  410000   0.10050323    7.6253472    1485081.7    1485089.4   -862.01243 
  410500    0.1003691    7.6254209    1483591.8    1483599.5   -860.35903 
  411000   0.10045768    7.6257268    1479685.8    1479693.5   -860.84817 
  411500   0.10058015     7.625597    1476567.9    1476575.6    -859.0645 
  412000  0.099955392    7.6263715    1473157.7    1473165.4   -859.91288 
  412500   0.10047895    7.6253868    1473157.8    1473165.5   -859.88699 
  413000   0.10025881    7.6260713    1471009.8    1471017.5   -861.44274 
  413500   0.10044995     7.627358    1470851.6    1470859.3   -861.73411 
  414000   0.10050462    7.6279835    1470447.3      1470455    -858.7661 
  414500    0.1003361    7.6264685    1470505.2    1470512.9   -860.52559 
  415000   0.10015981    7.6239279    1468750.1    1468757.8   -860.94001 
  415500   0.10049367    7.6233519      1467910    1467917.7   -860.44157 
  416000   0.10087821    7.6234242    1466210.7    1466218.4   -859.32334 
  416500   0.10042286    7.6216825    1463252.8    1463260.5   -861.43782 
  417000   0.10035652    7.6222039    1463811.6    1463819.3    -859.6323 
  417500   0.10052048     7.622265    1461592.5    1461600.2   -859.08941 
  418000   0.10051849    7.6227913    1462651.3      1462659   -860.28342 
  418500   0.10057001    7.6240947    1463851.4    1463859.1   -857.53592 
  419000   0.10064847    7.6227532    1463851.5    1463859.2   -860.55716 
  419500   0.10056135    7.6230177    1464905.8    1464913.5   -860.07757 
  420000   0.10035021    7.6233533    1462413.7    1462421.4   -860.20291 
  420500   0.10033528    7.6237305    1461149.2    1461156.9   -859.99356 
  421000     0.100818    7.6225406    1460025.8    1460033.5   -860.15281 
  421500   0.10049829     7.621702      1458974    1458981.7   -861.87871 
  422000   0.10032539    7.6221596    1457115.2    1457122.9   -860.52401 
  422500   0.10067952     7.623261      1457047    1457054.7   -858.22275 
  423000   0.10090308     7.622744    1456679.4    1456687.1   -859.37178 
  423500   0.10061346    7.6227025    1457143.2    1457150.9   -858.07508 
  424000   0.10029281    7.6248337    1457429.2    1457436.9   -859.30856 
  424500   0.10062961    7.6241608    1457429.2    1457436.9   -858.18726 
  425000   0.10038095     7.626006    1456892.5    1456900.2   -862.26345 
  425500    0.1002494    7.6280764    1456535.5    1456543.2   -861.10578 
  426000  0.099873706    7.6290579    1458252.6    1458260.3   -860.04415 
  426500   0.10042993    7.6303094    1458252.7    1458260.4   -862.28244 
  427000   0.10022481    7.6310506      1458320    1458327.7   -860.08398 
  427500   0.10004041    7.6314825    1458822.6    1458830.3   -860.80301 
  428000   0.10037914    7.6314273    1458822.5    1458830.3   -858.88475 
  428500   0.10021836    7.6328208    1458658.1    1458665.8    -862.2784 
  429000   0.10041176    7.6333147      1459152    1459159.7   -861.92809 
  429500   0.10042983    7.6353021    1456805.5    1456813.2     -859.104 
  430000    0.1002817    7.6355654    1456805.7    1456813.4   -860.13366 
  430500   0.10044088    7.6376812      1456406    1456413.7   -860.06736 
  431000    0.1006043    7.6384854    1458885.4    1458893.1   -860.42848 
  431500   0.10030609    7.6375813    1458917.2    1458924.9   -861.19805 
  432000   0.10027139    7.6377468    1458941.7    1458949.4   -860.25304 
  432500   0.10072029    7.6399493    1456498.1    1456505.8   -859.33471 
  433000   0.10067973    7.6412221    1454646.9    1454654.6   -859.23223 
  433500   0.10029986    7.6396301      1454647    1454654.7   -860.84698 
  434000   0.10009154    7.6414436      1452549    1452556.7    -859.7038 
  434500   0.10082576    7.6431757    1451168.4    1451176.1   -857.91446 
  435000   0.10073111    7.6426088    1449463.2    1449470.9   -861.67047 
  435500   0.10062473    7.6445127    1448192.4    1448200.1   -861.62891 
  436000   0.10029324    7.6432393    1448411.9    1448419.6   -860.09586 
  436500   0.10061552    7.6449234    1448581.6    1448589.3   -860.79921 
  437000   0.10034361    7.6442024    1449088.6    1449096.3   -863.06433 
  437500   0.10042885    7.6448275    1447667.5    1447675.3   -858.43683 
  438000   0.10085566    7.6445783    1446838.8    1446846.5   -860.76511 
  438500   0.10029484    7.6459196    1447662.2    1447669.9   -860.73709 
  439000   0.10027728    7.6447052    1447662.3      1447670   -859.11682 
  439500   0.10032097     7.645239    1448308.8    1448316.5   -863.82173 
  440000   0.10033333     7.644897    1448038.4    1448046.2   -860.59177 
  440500   0.10052309     7.645206    1449036.1    1449043.8   -862.25886 
  441000   0.10015754    7.6458741    1447582.3      1447590   -858.64432 
  441500   0.10071764    7.6446828    1448667.6    1448675.3   -859.20041 
  442000   0.10043293    7.6441805    1450817.2    1450824.9   -859.31943 
  442500   0.10060242    7.6465179    1451996.3    1452004.1   -858.11484 
  443000   0.10008238    7.6460386    1452401.7    1452409.4   -857.31299 
  443500   0.10004499    7.6467517    1449982.6    1449990.3   -860.82661 
  444000    0.1005957    7.6462176    1449982.6    1449990.3   -861.34094 
  444500   0.10049608    7.6449332    1449219.4    1449227.1   -861.57466 
  445000   0.10012614    7.6467315    1449219.5    1449227.2   -859.17556 
  445500   0.10064438    7.6463915    1449877.1    1449884.8   -861.86427 
  446000   0.10048455    7.6494125    1448642.2    1448649.9   -858.36834 
  446500   0.10016627    7.6481898    1448230.3    1448238.1   -859.26651 
  447000    0.1004315    7.6474259    1449376.8    1449384.5   -859.98211 
  447500   0.10072919    7.6470489    1449526.1    1449533.8   -859.41274 
  448000   0.10070912    7.6469682    1448715.6    1448723.4   -858.33754 
  448500   0.10077173    7.6465485    1448958.7    1448966.4   -858.52578 
  449000   0.10059429    7.6481969    1447677.8    1447685.5   -859.19614 
  449500   0.10023687     7.647481    1445967.5    1445975.2   -860.47142 
  450000   0.10041832    7.6483803    1444711.8    1444719.6   -858.83757 
  450500   0.10088211    7.6480998    1444711.7    1444719.4   -859.16637 
  451000   0.10042632    7.6493957    1444794.8    1444802.5   -857.83793 
  451500   0.10072751    7.6490443    1441828.6    1441836.3    -859.8064 
  452000   0.10048549    7.6501848    1439650.5    1439658.3   -858.00259 
  452500   0.10048941    7.6524447    1439923.5    1439931.2     -859.046 
  453000    0.1006562    7.6532516      1439409    1439416.7   -858.94697 
  453500   0.10036894    7.6539244      1437570    1437577.7    -857.9283 
  454000   0.10005194    7.6569937    1438449.6    1438457.3   -859.22195 
  454500   0.10074718    7.6577006    1437626.5    1437634.2    -859.3495 
  455000   0.10000074     7.657461    1438619.3    1438627.1   -860.09948 
  455500   0.10056659    7.6573216    1438562.3      1438570   -858.41489 
  456000   0.10029794     7.657484    1438562.3    1438570.1   -860.30947 
  456500   0.10043208    7.6583179    1440481.1    1440488.8   -862.13899 
  457000   0.10005596    7.6584643    1438889.5    1438897.2   -858.98355 
  457500   0.10074087    7.6579967    1438889.4    1438897.2    -860.0985 
  458000    0.1004664    7.6599611    1438423.4    1438431.1   -862.35005 
  458500   0.10069803    7.6596847    1437369.8    1437377.6    -860.4624 
  459000    0.1006576    7.6586611    1435629.9    1435637.6   -861.29444 
  459500   0.10031355    7.6601787    1435629.9    1435637.6   -859.40998 
  460000   0.10036204    7.6602787    1433156.2      1433164   -860.30166 
  460500   0.10034044    7.6613003    1433156.2      1433164   -861.33553 
  461000   0.10041999    7.6627465      1430863    1430870.7   -859.49781 
  461500   0.10072841    7.6633515    1425058.4    1425066.2   -862.07921 
  462000   0.10063576    7.6644939    1424444.5    1424452.2   -859.01422 
  462500   0.10071769    7.6647885    1422861.4    1422869.1   -859.67559 
  463000   0.10040703    7.6662087    1423148.1    1423155.8   -861.12234 
  463500   0.10047961     7.665569    1421769.9    1421777.6   -864.01872 
  464000   0.10083842    7.6657611    1418235.6    1418243.3   -859.69812 
  464500   0.10025652    7.6664799    1417120.1    1417127.8   -862.21163 
  465000   0.10074118    7.6690549    1413682.2    1413689.9   -859.73991 
  465500    0.1000154    7.6680781    1413682.1    1413689.9   -857.39767 
  466000   0.10042775    7.6693965      1412347    1412354.7   -858.98722 
  466500   0.10048283    7.6677659    1412488.3      1412496   -860.31386 
  467000   0.10053119    7.6691718    1411924.5    1411932.3   -861.12243 
  467500   0.10052605    7.6692819    1410704.9    1410712.7   -858.63014 
  468000   0.10058588    7.6699968      1409857    1409864.7   -858.64441 
  468500   0.10040939    7.6695377    1409037.9    1409045.7   -858.38534 
  469000   0.10009958    7.6697507    1409340.7    1409348.5    -859.4081 
  469500  0.099842632    7.6688307    1408547.2    1408554.9    -859.9978 
  470000   0.10039926    7.6687476    1408547.3      1408555   -858.65072 
  470500   0.10049279    7.6693736    1408091.9    1408099.6    -860.3675 
  471000   0.10076994    7.6677414    1408501.5    1408509.3   -861.84841 
  471500   0.10064716    7.6690304    1410307.4    1410315.2   -860.20485 
  472000   0.10053869      7.66924    1411696.4    1411704.2     -861.159 
  472500  0.099884228    7.6682131      1412913    1412920.7   -860.53765 
  473000   0.10039256    7.6694285    1412449.2    1412456.9   -861.92917 
  473500   0.10067675    7.6697911    1412449.2    1412456.9   -859.28825 
  474000    0.1004777    7.6701718    1415289.2    1415296.9   -859.29237 
  474500   0.10036912    7.6689015    1416641.4    1416649.1   -860.94857 
  475000   0.10046497    7.6709732    1417331.5    1417339.3    -858.8577 
  475500   0.10013128    7.6708952      1417886    1417893.7   -856.94387 
  476000   0.10022681    7.6709827    1420187.4    1420195.1   -859.89665 
  476500   0.10008372    7.6703645    1420130.4    1420138.2   -860.13687 
  477000    0.1003016    7.6716856    1420162.8    1420170.6   -860.86928 
  477500   0.10059128    7.6727288    1421925.9    1421933.6   -860.83106 
  478000   0.10055744    7.6722031    1422877.4    1422885.1   -860.03708 
  478500   0.10027855     7.673391    1424807.4    1424815.2   -861.09866 
[...]
 1872500   0.10000351    7.7357702    1445682.8    1445690.6   -860.43252 
 1873000   0.10049578    7.7362841    1444593.8    1444601.6   -860.55409 
 1873500   0.10025446     7.737097    1444593.7    1444601.5   -861.82151 
 1874000   0.10041604    7.7368043    1442212.9    1442220.7   -860.85881 
 1874500   0.10028745     7.736462    1442783.6    1442791.4   -862.98516 
 1875000   0.10045047     7.736949    1442783.6    1442791.4    -860.2104 
 1875500   0.10039495    7.7379073    1442708.9    1442716.7   -860.16422 
 1876000  0.099998281    7.7393685    1441933.4    1441941.2   -857.84742 
 1876500    0.1001124    7.7391505    1441933.6    1441941.4   -858.74715 
 1877000   0.10060033    7.7409216    1441911.6    1441919.4    -860.4435 
 1877500   0.10053228     7.741727    1443042.4    1443050.2   -860.37824 
 1878000    0.1003657    7.7424449    1441200.1      1441208   -860.96938 
 1878500   0.10048558    7.7410744    1441200.2      1441208   -861.91444 
 1879000   0.10026298    7.7404521    1443078.3    1443086.1    -861.9366 
 1879500   0.10069504    7.7404794    1442538.9    1442546.7   -860.77679 
 1880000  0.099814488    7.7408835      1442792    1442799.8   -860.45045 
 1880500   0.10051175    7.7395306    1442664.4    1442672.3   -862.82036 
 1881000   0.10033545    7.7385659    1442664.4    1442672.2    -859.4255 
 1881500   0.10024747    7.7390158    1441899.9    1441907.7   -861.59544 
 1882000   0.10046852    7.7401696    1444786.4    1444794.2   -858.87357 
 1882500   0.10043706    7.7393423    1444751.1    1444758.9   -859.44347 
 1883000   0.10101981    7.7378709    1445340.5    1445348.3   -861.53439 
 1883500    0.1001675    7.7383982    1445340.4    1445348.2   -860.43726 
 1884000   0.10030013    7.7369053    1447500.8    1447508.7   -860.64721 
 1884500    0.1008741    7.7372751    1449328.1    1449335.9   -860.27158 
 1885000   0.10029317    7.7375655    1448647.3    1448655.1   -863.12577 
 1885500   0.10022914    7.7376768    1448046.2      1448054   -862.55469 
 1886000   0.10046904    7.7361772    1447836.5    1447844.3   -860.20077 
 1886500   0.10025669     7.735892    1447913.7    1447921.5   -860.76591 
 1887000   0.10070708    7.7356631    1450393.1    1450400.9   -860.08513 
 1887500   0.10075679    7.7357344    1451798.1    1451805.9   -861.33867 
 1888000   0.10052908    7.7356428    1455409.6    1455417.4   -862.69237 
 1888500   0.10040015    7.7337388    1456700.9    1456708.7   -861.05635 
 1889000   0.10049391    7.7344696    1458760.6    1458768.4   -862.04974 
 1889500   0.10055951    7.7342247    1462632.8    1462640.6   -859.91203 
 1890000   0.10046087    7.7348112    1463965.2    1463973.1   -857.62903 
 1890500   0.10064185    7.7349999    1463965.3    1463973.1   -859.11784 
 1891000    0.1005086    7.7330818    1468193.3    1468201.1   -858.61571 
 1891500   0.10051129    7.7345818    1469455.3    1469463.1   -861.99213 
 1892000   0.10005682    7.7340471    1473138.4    1473146.2   -863.36902 
 1892500   0.10071296    7.7340234    1473516.8    1473524.6   -861.89922 
 1893000   0.10010405    7.7333342    1476269.5    1476277.3   -858.59648 
 1893500   0.10047217     7.734299    1476948.7    1476956.5   -861.92253 
 1894000   0.10034406    7.7333516    1479102.3    1479110.1   -859.14636 
 1894500   0.10003654    7.7347211    1479102.3    1479110.1   -862.01685 
 1895000   0.10044237    7.7358736    1481409.1    1481416.9   -859.69822 
 1895500   0.10071388      7.73693    1486129.5    1486137.3   -860.69016 
 1896000   0.10058596    7.7367244    1484509.6    1484517.4   -858.54597 
 1896500   0.10007185    7.7372136    1485297.5    1485305.3   -860.08685 
 1897000   0.10012569    7.7385241    1485032.2      1485040   -861.91709 
 1897500   0.10041139    7.7399744    1486208.3    1486216.1    -860.4956 
 1898000   0.10038456    7.7399734    1485625.3    1485633.1   -858.77564 
 1898500   0.10038469    7.7400419    1485625.2      1485633   -860.53168 
 1899000   0.10016736    7.7411968    1488442.9    1488450.7   -863.42412 
 1899500  0.099921967    7.7420595    1488348.4    1488356.2   -860.12622 
 1900000   0.10013813    7.7416865    1486026.2    1486034.1   -860.24072 
 1900500   0.10014686    7.7430927    1486026.1    1486033.9   -859.91564 
 1901000   0.10049988    7.7437253    1485445.7    1485453.5   -860.15274 
 1901500   0.10022463    7.7436688      1486383    1486390.8   -860.44419 
 1902000   0.10023785    7.7450114    1486630.9    1486638.7   -860.01218 
 1902500   0.10073174     7.745332    1483888.6    1483896.5   -863.69613 
 1903000   0.10044159    7.7463002    1482763.9    1482771.7   -861.12382 
 1903500   0.10012997    7.7476581    1483715.8    1483723.6   -860.24614 
 1904000   0.10027485    7.7487553    1483715.8    1483723.6   -860.77684 
 1904500  0.099914133    7.7499059    1484766.6    1484774.5   -858.85787 
 1905000   0.10043839     7.750257      1485877    1485884.8   -858.13941 
 1905500   0.10029689    7.7490861      1486093    1486100.9   -860.97486 
 1906000   0.10042231    7.7490541    1484286.5    1484294.3   -860.20592 
 1906500   0.10033255    7.7513238    1481128.4    1481136.2   -860.26489 
 1907000   0.10015622    7.7503411    1481128.4    1481136.2   -859.64823 
 1907500   0.10025103    7.7488814    1477953.5    1477961.3   -858.90209 
 1908000   0.10027188    7.7508032    1474903.8    1474911.6   -859.62851 
 1908500   0.10022742    7.7513165      1474202    1474209.8   -861.07994 
 1909000   0.10038763    7.7512726    1472389.1    1472396.9   -861.76121 
 1909500   0.10013047    7.7520029    1468367.1    1468374.9   -860.69497 
 1910000   0.10042494    7.7526408    1465406.1    1465413.9    -861.7718 
 1910500    0.1006467    7.7534516    1464642.8    1464650.6   -859.98811 
 1911000   0.10007797    7.7524326    1462369.6    1462377.5   -861.46832 
 1911500    0.1005754    7.7534811    1460711.1    1460718.9   -861.56171 
 1912000   0.10046367    7.7542164    1460711.2      1460719   -861.61842 
 1912500   0.10076921    7.7553345    1456289.4    1456297.2    -861.3956 
 1913000   0.10051365    7.7551044    1454226.8    1454234.6   -858.08054 
 1913500  0.099944719    7.7561174    1451794.7    1451802.5   -861.16402 
 1914000   0.10074082    7.7551062      1450232    1450239.9   -859.75131 
 1914500   0.10057959     7.755931    1450284.6    1450292.4   -861.36215 
 1915000   0.10029175    7.7564051    1448252.6    1448260.4   -862.39989 
 1915500    0.1007078    7.7554422    1447022.3    1447030.1   -860.34358 
 1916000   0.10047671    7.7563506    1445460.2    1445468.1   -861.47247 
 1916500   0.10076748    7.7563337    1445460.2      1445468   -861.43866 
 1917000   0.10092323    7.7564183    1444415.9    1444423.8    -861.6285 
 1917500     0.100434    7.7571185    1444108.9    1444116.7   -860.12204 
 1918000   0.10038341    7.7571177    1441649.5    1441657.4   -859.47895 
 1918500    0.1005787    7.7577058      1439736    1439743.8   -859.61625 
 1919000   0.10045087    7.7584945    1439830.3    1439838.1   -859.84649 
 1919500   0.10052365    7.7571133    1439830.2      1439838   -859.94617 
 1920000   0.10043426    7.7595414    1438850.6    1438858.4      -859.59 
 1920500   0.10034726    7.7589238    1439057.5    1439065.3   -862.38735 
 1921000   0.10046508    7.7596164    1440882.5    1440890.3   -859.13848 
 1921500   0.10024902    7.7587687    1438316.1      1438324   -861.93159 
 1922000   0.10023722    7.7596962    1440479.8    1440487.6   -858.84162 
 1922500   0.10053053    7.7608472    1440479.8    1440487.6   -860.38017 
 1923000   0.10064226    7.7606999    1441119.2    1441127.1   -861.16959 
 1923500   0.10062188    7.7612182    1443362.3    1443370.1   -860.77258 
 1924000   0.10057807    7.7609776    1444400.2      1444408   -859.17911 
 1924500   0.10023046    7.7611658    1445569.3    1445577.1   -862.68088 
 1925000   0.10059791    7.7608151    1445569.2    1445577.1   -861.90762 
 1925500   0.10034387    7.7622235    1447845.1    1447852.9   -861.25191 
 1926000   0.10046367    7.7615961      1448685    1448692.8     -860.257 
 1926500   0.10001485    7.7617587    1450181.5    1450189.3   -859.61393 
 1927000   0.10042077    7.7618332    1451682.6    1451690.4   -862.56449 
 1927500   0.10043341    7.7628345    1451491.5    1451499.3   -862.12983 
 1928000    0.1004374    7.7630092    1452976.4    1452984.2   -858.66383 
 1928500   0.10090582    7.7638124    1454295.3    1454303.1   -861.88516 
 1929000   0.10015876    7.7643058    1453486.6    1453494.4   -859.64528 
 1929500    0.1003734    7.7635323      1454821    1454828.8   -859.95633 
 1930000    0.1003058    7.7630141    1454820.9    1454828.8   -861.11454 
 1930500   0.10076484    7.7640362    1455751.1      1455759   -861.60825 
 1931000   0.10088838    7.7643534    1456887.8    1456895.7    -861.5647 
 1931500   0.10062469    7.7637416      1460609    1460616.8   -860.86759 
 1932000   0.10031342     7.764817    1462055.7    1462063.6   -861.76731 
 1932500   0.10018409    7.7649472    1465115.7    1465123.5   -861.37128 
 1933000   0.10043843    7.7643922    1467595.3    1467603.1   -859.76081 
 1933500   0.10063728    7.7656959    1469202.6    1469210.4   -860.11392 
 1934000   0.10056088     7.765738    1469202.6    1469210.4   -861.19906 
 1934500   0.10027825    7.7654296    1468355.8    1468363.6   -860.70838 
 1935000    0.1002111    7.7654319    1470130.2      1470138   -861.13649 
 1935500   0.10043863    7.7667933    1470960.9    1470968.8   -860.12951 
 1936000   0.10017864    7.7675765    1470171.1    1470178.9   -860.96861 
 1936500   0.10022742    7.7670297    1470171.1    1470178.9   -857.46502 
 1937000   0.10031274    7.7677896    1469783.6    1469791.5   -859.68713 
 1937500    0.1003527    7.7664905    1467752.2    1467760.1   -859.94473 
 1938000   0.10051958    7.7674903    1466455.5    1466463.3   -858.13777 
 1938500   0.10047406    7.7659785    1465843.4    1465851.3   -859.88034 
 1939000  0.099954569     7.766603    1465843.5    1465851.3   -861.87602 
 1939500   0.10035301    7.7672035    1462070.6    1462078.4   -861.14047 
 1940000   0.10000456    7.7666799    1459535.4    1459543.2   -861.89607 
 1940500   0.10043818    7.7678477    1460258.9    1460266.7   -858.51366 
 1941000   0.10030492    7.7695466    1460258.9    1460266.7   -861.15016 
 1941500   0.10019615      7.76998    1460492.6    1460500.4    -861.1244 
 1942000   0.10045388    7.7686289    1460344.3    1460352.1   -860.21204 
 1942500   0.10073107    7.7697785    1461133.4    1461141.2   -861.81794 
 1943000   0.10039005    7.7686667    1461133.4    1461141.2   -861.47356 
 1943500   0.10040457    7.7686558    1460447.9    1460455.7   -861.25449 
 1944000    0.1005166    7.7690035    1459547.6    1459555.4   -860.38812 
 1944500   0.10050464    7.7693295    1460472.5    1460480.4   -860.54224 
 1945000    0.1002221    7.7694114    1458689.7    1458697.5   -860.86971 
 1945500   0.10047574    7.7684223    1458529.7    1458537.6   -860.07913 
 1946000   0.10039319    7.7686817    1458529.6    1458537.5   -860.97859 
 1946500   0.10020952    7.7687158    1457027.8    1457035.6   -860.38491 
 1947000   0.10017283    7.7699109    1456290.4    1456298.3   -859.56251 
 1947500   0.10063789    7.7704808    1455925.5    1455933.3   -861.01457 
 1948000   0.10005716    7.7704001    1455364.1    1455371.9    -862.4605 
 1948500   0.10075274     7.771263      1455364    1455371.9   -860.92067 
 1949000   0.10033352    7.7726336    1454827.3    1454835.2   -861.72629 
 1949500   0.10042687     7.772643    1451365.8    1451373.7   -860.37918 
 1950000   0.10042941    7.7735659    1451771.3    1451779.1   -860.70227 
 1950500   0.10073245    7.7729936    1451771.2      1451779   -860.96146 
 1951000    0.1002787    7.7721709    1451163.1    1451170.9   -860.55104 
 1951500  0.099850717    7.7737147    1450788.2      1450796   -860.54856 
 1952000   0.10023284    7.7740938    1449231.5    1449239.3   -862.60886 
 1952500   0.10014665    7.7725613    1448193.3    1448201.2   -860.57481 
 1953000   0.10002611    7.7725179    1448193.3    1448201.1   -858.67469 
 1953500   0.10064359     7.772004      1446363    1446370.8    -861.1208 
 1954000   0.10031502    7.7727324    1444379.9    1444387.8   -862.67337 
 1954500   0.10033508    7.7736221    1441597.5    1441605.4    -861.3032 
 1955000   0.10075358    7.7735517    1441597.6    1441605.4   -861.05635 
 1955500   0.10035348    7.7747044    1439160.6    1439168.5   -861.72137 
 1956000   0.10012602    7.7755978    1436459.9    1436467.7    -860.5619 
 1956500    0.1004253     7.774439    1433638.3    1433646.1   -860.52864 
 1957000   0.10006709    7.7733022    1433371.5    1433379.4   -862.33986 
 1957500   0.10061162    7.7734092    1433371.6    1433379.5   -861.86957 
 1958000   0.10040497    7.7736007    1430804.3    1430812.2   -862.66122 
 1958500   0.10023077    7.7732989    1428483.6    1428491.4   -860.23655 
 1959000   0.10033233    7.7720668    1428987.9    1428995.7   -860.77369 
 1959500   0.10059698    7.7732896    1428764.4    1428772.3   -862.35658 
 1960000     0.100699    7.7739701    1428764.4    1428772.3   -860.95957 
 1960500   0.10051391    7.7735235      1429989    1429996.8   -860.72532 
 1961000   0.10050301    7.7735529    1429834.1      1429842   -860.39213 
 1961500    0.1006983    7.7718013    1431052.4    1431060.2   -861.27853 
 1962000   0.10083934    7.7722076    1428192.8    1428200.6   -862.02978 
 1962500   0.10084878    7.7712974    1428192.8    1428200.6   -858.49105 
 1963000    0.1006592    7.7718775    1427807.9    1427815.7   -858.14683 
 1963500   0.10021858    7.7699901    1426497.8    1426505.7   -859.74441 
 1964000   0.10050304    7.7698435    1428034.7    1428042.5   -859.70372 
 1964500   0.10031039    7.7695192    1428177.1      1428185   -859.28166 
 1965000   0.10037837    7.7695196      1428177    1428184.9   -860.73433 
 1965500    0.1008569     7.770042    1429138.3    1429146.1   -864.35006 
 1966000   0.10025463      7.76889      1431129    1431136.8   -859.41056 
 1966500   0.10066315    7.7706562    1432394.8    1432402.7   -863.07847 
 1967000   0.10005443    7.7705762    1433522.6    1433530.5   -862.84206 
 1967500   0.10013745    7.7710637    1433522.6    1433530.4   -861.63257 
 1968000   0.10015168    7.7706281    1434247.1      1434255    -860.8425 
 1968500   0.10047011    7.7709661      1433924    1433931.8   -860.70098 
 1969000   0.10065444    7.7710155    1434820.5    1434828.3   -858.27885 
 1969500    0.1008352     7.771678    1435513.6    1435521.4   -862.15882 
 1970000   0.10021677    7.7711586    1435513.6    1435521.4    -860.6676 
 1970500   0.10044069    7.7706094    1434568.3    1434576.1   -860.06414 
 1971000   0.10093795    7.7720359      1433210    1433217.9   -859.62768 
 1971500   0.10035601    7.7716552    1432966.9    1432974.8   -861.36349 
 1972000   0.10058423    7.7717601    1433394.2    1433402.1    -861.7211 
 1972500   0.10067043      7.77197    1434494.4    1434502.3   -858.62445 
 1973000   0.10051786    7.7724935      1434422    1434429.9   -860.56021 
 1973500   0.10058232    7.7729682    1433587.2      1433595   -860.78518 
 1974000  0.099890636    7.7730802    1432359.7    1432367.5   -861.36638 
 1974500   0.10057997     7.772472    1433469.9    1433477.7   -858.79306 
 1975000   0.10069282    7.7727797    1432181.2      1432189   -862.81573 
 1975500    0.1004742    7.7717049    1433640.7    1433648.5   -860.15756 
 1976000   0.10044172    7.7718651    1433640.6    1433648.5   -862.90852 
 1976500    0.1000495    7.7723147    1433551.5    1433559.4   -860.19996 
 1977000   0.10079103      7.77128    1432038.5    1432046.3   -859.91311 
 1977500   0.10069931    7.7726663    1430740.5    1430748.4   -860.69702 
 1978000   0.10023866    7.7729124    1429728.2    1429736.1   -859.12016 
 1978500    0.1006515    7.7726096    1430556.8    1430564.6   -860.32446 
 1979000   0.10037778    7.7734716    1429891.1    1429898.9   -859.13089 
 1979500    0.1001932    7.7718679    1428571.1    1428578.9   -859.76225 
 1980000   0.10024643    7.7731108    1428992.3    1429000.1    -858.6672 
 1980500   0.10030326    7.7732921      1429180    1429187.9   -862.30711 
 1981000   0.10025113    7.7732006    1429179.9    1429187.8    -862.0225 
 1981500   0.10045107    7.7739181    1428633.4    1428641.2   -859.42158 
 1982000   0.10042477    7.7739183    1428969.4    1428977.3   -861.69931 
 1982500   0.10034634    7.7729709    1430415.3    1430423.2   -859.91108 
 1983000   0.10026539    7.7724539    1431332.6    1431340.5   -859.51455 
 1983500   0.10011797    7.7723484    1433176.4    1433184.2   -861.23245 
 1984000   0.10057817    7.7716832    1435736.8    1435744.6   -863.69742 
 1984500   0.10012612    7.7700342    1435736.8    1435744.6   -861.90046 
 1985000   0.10046134    7.7713821    1438544.4    1438552.3   -860.14437 
 1985500    0.1004312    7.7706227    1440473.1      1440481   -860.64704 
 1986000   0.10044457     7.770095    1441525.9    1441533.8   -860.16478 
 1986500   0.10018617    7.7696972      1442493    1442500.9   -863.49349 
 1987000   0.10028911    7.7699466    1445678.6    1445686.4   -859.41446 
 1987500    0.1001145    7.7687172    1445678.7    1445686.5   -859.43163 
 1988000    0.1005596    7.7688179    1445327.9    1445335.8   -860.42932 
 1988500   0.10022384      7.76902    1446326.5    1446334.4   -861.00207 
 1989000  0.099709924      7.76754    1445948.1    1445955.9   -863.88259 
 1989500   0.10041153    7.7673632    1445738.2      1445746   -859.99177 
 1990000   0.10021851    7.7669528    1445738.3    1445746.2   -858.90224 
 1990500     0.100559    7.7657139    1447741.6    1447749.4   -861.04146 
 1991000   0.10013786    7.7645346    1447741.7    1447749.5   -861.95718 
 1991500   0.10073134    7.7638074    1449757.2      1449765   -863.43598 
 1992000    0.1007168    7.7635124    1452331.9    1452339.7   -861.26491 
 1992500   0.10051235    7.7613365    1454341.1    1454348.9   -863.41615 
 1993000   0.10056444    7.7607482    1457636.6    1457644.4   -861.40748 
 1993500   0.10001391    7.7598656    1457636.7    1457644.5   -860.28728 
 1994000   0.10034341    7.7604497    1459120.5    1459128.3    -860.6282 
 1994500   0.10040548    7.7608365    1461142.9    1461150.7   -858.62802 
 1995000   0.10053692    7.7602868    1462570.6    1462578.4   -859.96779 
 1995500   0.10013561    7.7587534    1462725.6    1462733.4   -858.77941 
 1996000    0.1001775     7.758324    1462725.5    1462733.4   -859.56218 
 1996500   0.10003866    7.7568907    1464106.1    1464113.9   -859.15316 
 1997000   0.10060539    7.7561572    1464199.2      1464207   -860.79695 
 1997500   0.10029598     7.755495    1464978.4    1464986.2   -859.95517 
 1998000   0.10032971    7.7563399    1467047.8    1467055.6   -861.80989 
 1998500   0.10037632     7.753947    1467047.8    1467055.6     -858.751 
 1999000   0.10047019    7.7538968      1468165    1468172.8   -862.07747 
 1999500    0.1002614    7.7513051    1468517.8    1468525.6   -860.00957 
 2000000   0.10020994    7.7524681    1469906.7    1469914.5   -860.60594 
 2000010   0.10046836    7.7523488    1469906.8    1469914.6    -860.1915 
Loop time of 152934 on 640 procs for 2000010 steps with 250470 atoms

Pair  time (%) = 48931.2 (31.995)
Bond  time (%) = 44199 (28.9008)
Neigh time (%) = 349.874 (0.228775)
Comm  time (%) = 10635.7 (6.95447)
Outpt time (%) = 252.82 (0.165313)
Other time (%) = 48565.1 (31.7557)

Nlocal:    391.359 ave 1217 max 220 min
Histogram: 178 298 121 7 9 9 2 5 3 8
Nghost:    3626.3 ave 7500 max 1991 min
Histogram: 105 142 91 146 85 13 19 20 10 9
Neighs:    58683.3 ave 106354 max 22868 min
Histogram: 37 70 90 98 99 97 68 53 25 3

Total # of neighbors = 37557335
Ave neighs/atom = 149.947
Ave special neighs/atom = 9.6003
Neighbor list builds = 8558
Dangerous builds = 0
